<?xml version="1.0" encoding="UTF-8"?>

<!-- generated on 2024-12-24 02:11:12 by Eclipse SUMO sumo Version 1.21.0
<sumoConfiguration xmlns:xsi="http://www.w3.org/2001/XMLSchema-instance" xsi:noNamespaceSchemaLocation="http://sumo.dlr.de/xsd/sumoConfiguration.xsd">

    <input>
        <net-file value="Project_KeivanJamali.net.xml"/>
        <route-files value="Project_KeivanJamali.rou.xml"/>
        <additional-files value="Project_KeivanJamali.detectors.xml"/>
    </input>

    <output>
        <tripinfo-output value="output/Project_KeivanJamali.tripinfo.xml"/>
        <edgedata-output value="output/Project_KeivanJamali.edgedata.xml"/>
    </output>

    <time>
        <begin value="0"/>
        <end value="3600"/>
    </time>

    <traci_server>
        <remote-port value="61007"/>
    </traci_server>

    <gui_only>
        <start value="true"/>
    </gui_only>

</sumoConfiguration>
-->

<meandata xmlns:xsi="http://www.w3.org/2001/XMLSchema-instance" xsi:noNamespaceSchemaLocation="http://sumo.dlr.de/xsd/meandata_file.xsd">
    <interval begin="0.00" end="3620.00" id="DEFAULT_EDGEDATA">
        <edge id="-E0" sampledSeconds="23963.21" traveltime="128.73" overlapTraveltime="129.31" density="3.03" laneDensity="1.51" occupancy="0.75" waitingTime="0.00" timeLoss="1449.06" speed="16.95" speedRelative="1.02" departed="0" arrived="0" entered="187" left="181" laneChangedFrom="119" laneChangedTo="119"/>
        <edge id="-E10" sampledSeconds="12505.77" traveltime="49.45" overlapTraveltime="51.37" density="4.43" laneDensity="2.22" occupancy="1.07" waitingTime="284.00" timeLoss="1236.49" speed="15.27" speedRelative="0.92" departed="0" arrived="0" entered="244" left="243" laneChangedFrom="253" laneChangedTo="253"/>
        <edge id="-E11" sampledSeconds="7001.53" traveltime="43.64" overlapTraveltime="44.97" density="3.34" laneDensity="1.67" occupancy="0.82" waitingTime="151.00" timeLoss="1733.55" speed="12.99" speedRelative="0.78" departed="200" arrived="0" entered="57" left="256" laneChangedFrom="105" laneChangedTo="105"/>
        <edge id="-E12" sampledSeconds="152.48" traveltime="36.10" overlapTraveltime="38.12" density="0.05" laneDensity="0.03" occupancy="0.02" waitingTime="1.00" timeLoss="16.42" speed="20.61" speedRelative="1.24" departed="0" arrived="0" entered="4" left="4" laneChangedFrom="5" laneChangedTo="5"/>
        <edge id="-E13" sampledSeconds="17529.95" traveltime="115.24" overlapTraveltime="115.74" density="2.72" laneDensity="1.36" occupancy="0.68" waitingTime="0.00" timeLoss="1670.89" speed="15.45" speedRelative="0.93" departed="200" arrived="0" entered="55" left="252" laneChangedFrom="54" laneChangedTo="54"/>
        <edge id="-E15" sampledSeconds="2970.50" traveltime="57.13" overlapTraveltime="58.13" density="1.05" laneDensity="0.53" occupancy="0.26" waitingTime="87.00" timeLoss="313.61" speed="13.49" speedRelative="0.81" departed="0" arrived="0" entered="52" left="50" laneChangedFrom="52" laneChangedTo="52"/>
        <edge id="-E16" sampledSeconds="15073.78" traveltime="48.65" overlapTraveltime="48.97" density="5.49" laneDensity="2.74" occupancy="1.36" waitingTime="0.00" timeLoss="829.15" speed="15.59" speedRelative="0.94" departed="0" arrived="0" entered="310" left="307" laneChangedFrom="117" laneChangedTo="117"/>
        <edge id="-E17" sampledSeconds="13617.25" traveltime="24.47" overlapTraveltime="24.81" density="9.92" laneDensity="4.96" occupancy="2.44" waitingTime="0.00" timeLoss="715.89" speed="15.49" speedRelative="0.93" departed="0" arrived="0" entered="550" left="548" laneChangedFrom="163" laneChangedTo="163"/>
        <edge id="-E18" sampledSeconds="1172.36" traveltime="23.50" overlapTraveltime="23.81" density="0.86" laneDensity="0.43" occupancy="0.21" waitingTime="0.00" timeLoss="46.70" speed="15.97" speedRelative="0.96" departed="0" arrived="99" entered="99" left="0" laneChangedFrom="4" laneChangedTo="4"/>
        <edge id="-E20" sampledSeconds="21163.20" traveltime="53.41" overlapTraveltime="54.35" density="7.54" laneDensity="3.77" occupancy="1.86" waitingTime="922.00" timeLoss="3213.08" speed="14.37" speedRelative="0.86" departed="0" arrived="189" entered="489" left="296" laneChangedFrom="236" laneChangedTo="236"/>
        <edge id="-E21" sampledSeconds="5447.71" traveltime="31.84" overlapTraveltime="32.87" density="3.93" laneDensity="1.96" occupancy="0.96" waitingTime="0.00" timeLoss="1433.99" speed="11.81" speedRelative="0.71" departed="300" arrived="2" entered="2" left="300" laneChangedFrom="3" laneChangedTo="3"/>
        <edge id="-E22" sampledSeconds="3802.24" traveltime="24.67" overlapTraveltime="26.78" density="2.75" laneDensity="1.38" occupancy="0.65" waitingTime="200.00" timeLoss="551.51" speed="14.44" speedRelative="0.87" departed="0" arrived="0" entered="142" left="142" laneChangedFrom="113" laneChangedTo="113"/>
        <edge id="-E23" sampledSeconds="5104.77" traveltime="50.55" overlapTraveltime="51.27" density="1.81" laneDensity="0.90" occupancy="0.45" waitingTime="6.00" timeLoss="352.04" speed="15.30" speedRelative="0.92" departed="0" arrived="0" entered="100" left="99" laneChangedFrom="104" laneChangedTo="104"/>
        <edge id="-E24" sampledSeconds="2424.18" traveltime="55.94" overlapTraveltime="56.23" density="0.70" laneDensity="0.35" occupancy="0.17" waitingTime="0.00" timeLoss="105.46" speed="17.08" speedRelative="1.02" departed="0" arrived="0" entered="44" left="43" laneChangedFrom="27" laneChangedTo="27"/>
        <edge id="-E25" sampledSeconds="13131.04" traveltime="128.82" overlapTraveltime="129.14" density="1.89" laneDensity="0.94" occupancy="0.47" waitingTime="0.00" timeLoss="1219.80" speed="14.92" speedRelative="0.90" departed="200" arrived="0" entered="0" left="198" laneChangedFrom="40" laneChangedTo="40"/>
        <edge id="-E26" sampledSeconds="24077.31" traveltime="48.80" overlapTraveltime="49.17" density="8.68" laneDensity="4.34" occupancy="2.16" waitingTime="1.00" timeLoss="1500.35" speed="15.69" speedRelative="0.94" departed="0" arrived="97" entered="540" left="438" laneChangedFrom="124" laneChangedTo="124"/>
        <edge id="-E27" sampledSeconds="1822.82" traveltime="47.95" overlapTraveltime="49.27" density="0.88" laneDensity="0.44" occupancy="0.22" waitingTime="387.00" timeLoss="612.01" speed="11.73" speedRelative="0.70" departed="0" arrived="0" entered="37" left="37" laneChangedFrom="37" laneChangedTo="37"/>
        <edge id="-E28" sampledSeconds="10317.95" traveltime="27.05" overlapTraveltime="27.85" density="7.52" laneDensity="3.76" occupancy="1.83" waitingTime="0.00" timeLoss="1687.78" speed="13.79" speedRelative="0.83" departed="0" arrived="0" entered="372" left="368" laneChangedFrom="4" laneChangedTo="4"/>
        <edge id="-E3" sampledSeconds="11216.54" traveltime="48.42" overlapTraveltime="49.22" density="3.98" laneDensity="1.99" occupancy="0.98" waitingTime="0.00" timeLoss="671.00" speed="15.93" speedRelative="0.96" departed="0" arrived="0" entered="229" left="226" laneChangedFrom="233" laneChangedTo="233"/>
        <edge id="-E32" sampledSeconds="2267.63" traveltime="39.51" overlapTraveltime="40.86" density="1.07" laneDensity="0.54" occupancy="0.26" waitingTime="0.00" timeLoss="283.44" speed="14.40" speedRelative="0.86" departed="0" arrived="0" entered="56" left="55" laneChangedFrom="1" laneChangedTo="1"/>
        <edge id="-E34" sampledSeconds="1753.80" traveltime="48.00" overlapTraveltime="48.72" density="0.62" laneDensity="0.31" occupancy="0.15" waitingTime="0.00" timeLoss="150.93" speed="16.10" speedRelative="0.97" departed="0" arrived="0" entered="36" left="36" laneChangedFrom="36" laneChangedTo="36"/>
        <edge id="-E35" sampledSeconds="8025.79" traveltime="54.80" overlapTraveltime="55.72" density="2.85" laneDensity="1.42" occupancy="0.70" waitingTime="423.00" timeLoss="1401.36" speed="14.07" speedRelative="0.84" departed="0" arrived="91" entered="194" left="98" laneChangedFrom="115" laneChangedTo="115"/>
        <edge id="-E36" sampledSeconds="10901.74" traveltime="48.37" overlapTraveltime="48.67" density="3.86" laneDensity="1.93" occupancy="0.96" waitingTime="0.00" timeLoss="635.38" speed="16.11" speedRelative="0.97" departed="0" arrived="0" entered="226" left="221" laneChangedFrom="206" laneChangedTo="206"/>
        <edge id="-E4" sampledSeconds="11376.28" traveltime="49.12" overlapTraveltime="49.42" density="4.03" laneDensity="2.02" occupancy="1.00" waitingTime="0.00" timeLoss="812.47" speed="15.87" speedRelative="0.95" departed="0" arrived="0" entered="233" left="229" laneChangedFrom="62" laneChangedTo="62"/>
        <edge id="-E5" sampledSeconds="10955.34" traveltime="37.91" overlapTraveltime="38.43" density="5.19" laneDensity="2.59" occupancy="1.28" waitingTime="0.00" timeLoss="695.32" speed="15.30" speedRelative="0.92" departed="0" arrived="186" entered="376" left="187" laneChangedFrom="198" laneChangedTo="198"/>
        <edge id="-E6" sampledSeconds="70.51" traveltime="34.32" overlapTraveltime="35.25" density="0.02" laneDensity="0.01" occupancy="0.01" waitingTime="0.00" timeLoss="7.50" speed="22.40" speedRelative="1.34" departed="0" arrived="0" entered="2" left="2" laneChangedFrom="1" laneChangedTo="1"/>
        <edge id="-E7" sampledSeconds="11295.34" traveltime="24.32" overlapTraveltime="24.64" density="8.23" laneDensity="4.11" occupancy="2.03" waitingTime="0.00" timeLoss="513.16" speed="15.59" speedRelative="0.94" departed="0" arrived="0" entered="460" left="457" laneChangedFrom="139" laneChangedTo="139"/>
        <edge id="-E9" sampledSeconds="4975.44" traveltime="24.73" overlapTraveltime="25.55" density="3.62" laneDensity="1.81" occupancy="0.88" waitingTime="0.00" timeLoss="558.15" speed="15.04" speedRelative="0.90" departed="0" arrived="0" entered="196" left="194" laneChangedFrom="195" laneChangedTo="195"/>
        <edge id="E0" sampledSeconds="30968.36" traveltime="147.76" overlapTraveltime="149.85" density="3.91" laneDensity="1.96" occupancy="0.97" waitingTime="0.00" timeLoss="3290.20" speed="14.63" speedRelative="0.88" departed="400" arrived="0" entered="0" left="395" laneChangedFrom="264" laneChangedTo="264"/>
        <edge id="E1" sampledSeconds="3210.80" traveltime="35.46" overlapTraveltime="35.76" density="1.52" laneDensity="0.76" occupancy="0.38" waitingTime="0.00" timeLoss="314.44" speed="16.45" speedRelative="0.99" departed="4" arrived="181" entered="181" left="4" laneChangedFrom="10" laneChangedTo="10"/>
        <edge id="E10" sampledSeconds="28033.16" traveltime="54.00" overlapTraveltime="54.96" density="9.94" laneDensity="4.97" occupancy="2.45" waitingTime="298.00" timeLoss="3593.57" speed="14.27" speedRelative="0.86" departed="200" arrived="0" entered="407" left="600" laneChangedFrom="303" laneChangedTo="303"/>
        <edge id="E11" sampledSeconds="9242.10" traveltime="38.02" overlapTraveltime="38.61" density="4.41" laneDensity="2.20" occupancy="1.09" waitingTime="34.00" timeLoss="754.36" speed="15.13" speedRelative="0.91" departed="0" arrived="285" entered="386" left="97" laneChangedFrom="158" laneChangedTo="158"/>
        <edge id="E12" sampledSeconds="10129.59" traveltime="50.45" overlapTraveltime="51.31" density="3.59" laneDensity="1.80" occupancy="0.89" waitingTime="0.00" timeLoss="626.30" speed="15.28" speedRelative="0.92" departed="0" arrived="0" entered="199" left="196" laneChangedFrom="20" laneChangedTo="20"/>
        <edge id="E13" sampledSeconds="5081.26" traveltime="104.26" overlapTraveltime="104.56" density="0.79" laneDensity="0.39" occupancy="0.20" waitingTime="0.00" timeLoss="323.12" speed="17.10" speedRelative="1.03" departed="0" arrived="94" entered="97" left="0" laneChangedFrom="91" laneChangedTo="91"/>
        <edge id="E14" sampledSeconds="14158.28" traveltime="49.10" overlapTraveltime="49.42" density="5.02" laneDensity="2.51" occupancy="1.25" waitingTime="0.00" timeLoss="932.52" speed="15.87" speedRelative="0.95" departed="100" arrived="0" entered="239" left="335" laneChangedFrom="106" laneChangedTo="106"/>
        <edge id="E15" sampledSeconds="3093.49" traveltime="54.80" overlapTraveltime="55.11" density="1.10" laneDensity="0.55" occupancy="0.28" waitingTime="0.00" timeLoss="473.76" speed="14.23" speedRelative="0.85" departed="100" arrived="4" entered="5" left="101" laneChangedFrom="8" laneChangedTo="8"/>
        <edge id="E16" sampledSeconds="9231.72" traveltime="104.60" overlapTraveltime="106.12" density="3.36" laneDensity="1.68" occupancy="0.83" waitingTime="4137.00" timeLoss="5217.05" speed="7.19" speedRelative="0.43" departed="0" arrived="0" entered="87" left="86" laneChangedFrom="83" laneChangedTo="83"/>
        <edge id="E17" sampledSeconds="2153.09" traveltime="24.72" overlapTraveltime="25.04" density="1.57" laneDensity="0.78" occupancy="0.39" waitingTime="0.00" timeLoss="168.48" speed="15.35" speedRelative="0.92" departed="0" arrived="0" entered="86" left="86" laneChangedFrom="74" laneChangedTo="74"/>
        <edge id="E18" sampledSeconds="13055.43" traveltime="24.28" overlapTraveltime="24.61" density="9.61" laneDensity="4.81" occupancy="2.37" waitingTime="0.00" timeLoss="749.24" speed="15.45" speedRelative="0.93" departed="0" arrived="0" entered="534" left="527" laneChangedFrom="58" laneChangedTo="58"/>
        <edge id="E19" sampledSeconds="2558.84" traveltime="59.95" overlapTraveltime="61.19" density="0.83" laneDensity="0.42" occupancy="0.21" waitingTime="299.00" timeLoss="557.59" speed="13.96" speedRelative="0.84" departed="0" arrived="0" entered="42" left="41" laneChangedFrom="42" laneChangedTo="42"/>
        <edge id="E2" sampledSeconds="3746.23" traveltime="39.75" overlapTraveltime="40.09" density="1.79" laneDensity="0.89" occupancy="0.44" waitingTime="0.00" timeLoss="444.62" speed="14.57" speedRelative="0.87" departed="0" arrived="195" entered="196" left="0" laneChangedFrom="12" laneChangedTo="12"/>
        <edge id="E20" sampledSeconds="3479.02" traveltime="68.44" overlapTraveltime="70.36" density="1.24" laneDensity="0.62" occupancy="0.31" waitingTime="428.00" timeLoss="1142.46" speed="11.10" speedRelative="0.67" departed="100" arrived="0" entered="0" left="100" laneChangedFrom="100" laneChangedTo="100"/>
        <edge id="E21" sampledSeconds="5002.28" traveltime="23.63" overlapTraveltime="24.09" density="3.61" laneDensity="1.80" occupancy="0.89" waitingTime="0.00" timeLoss="346.59" speed="16.12" speedRelative="0.97" departed="0" arrived="189" entered="292" left="103" laneChangedFrom="112" laneChangedTo="112"/>
        <edge id="E22" sampledSeconds="14697.73" traveltime="27.04" overlapTraveltime="27.93" density="10.64" laneDensity="5.32" occupancy="2.60" waitingTime="0.00" timeLoss="1946.86" speed="13.84" speedRelative="0.83" departed="0" arrived="0" entered="527" left="526" laneChangedFrom="69" laneChangedTo="69"/>
        <edge id="E23" sampledSeconds="25625.95" traveltime="53.40" overlapTraveltime="54.43" density="9.08" laneDensity="4.54" occupancy="2.23" waitingTime="97.00" timeLoss="2898.26" speed="14.41" speedRelative="0.86" departed="0" arrived="95" entered="526" left="423" laneChangedFrom="440" laneChangedTo="440"/>
        <edge id="E25" sampledSeconds="43349.98" traveltime="111.74" overlapTraveltime="112.29" density="6.23" laneDensity="3.12" occupancy="1.55" waitingTime="0.00" timeLoss="2530.24" speed="17.16" speedRelative="1.03" departed="0" arrived="0" entered="394" left="381" laneChangedFrom="520" laneChangedTo="520"/>
        <edge id="E26" sampledSeconds="5093.52" traveltime="48.11" overlapTraveltime="48.42" density="1.84" laneDensity="0.92" occupancy="0.46" waitingTime="0.00" timeLoss="202.62" speed="15.93" speedRelative="0.96" departed="0" arrived="196" entered="198" left="0" laneChangedFrom="18" laneChangedTo="18"/>
        <edge id="E29" sampledSeconds="12008.66" traveltime="61.18" overlapTraveltime="61.50" density="3.46" laneDensity="1.73" occupancy="0.86" waitingTime="0.00" timeLoss="641.03" speed="15.69" speedRelative="0.94" departed="0" arrived="362" entered="367" left="0" laneChangedFrom="258" laneChangedTo="258"/>
        <edge id="E3" sampledSeconds="10545.36" traveltime="51.12" overlapTraveltime="51.44" density="3.74" laneDensity="1.87" occupancy="0.93" waitingTime="0.00" timeLoss="752.03" speed="15.25" speedRelative="0.91" departed="2" arrived="0" entered="204" left="204" laneChangedFrom="93" laneChangedTo="93"/>
        <edge id="E30" sampledSeconds="6027.73" traveltime="24.06" overlapTraveltime="24.44" density="4.39" laneDensity="2.20" occupancy="1.08" waitingTime="0.00" timeLoss="316.95" speed="15.72" speedRelative="0.94" departed="0" arrived="281" entered="380" left="99" laneChangedFrom="55" laneChangedTo="55"/>
        <edge id="E31" sampledSeconds="5112.57" traveltime="44.43" overlapTraveltime="45.67" density="2.44" laneDensity="1.22" occupancy="0.60" waitingTime="206.00" timeLoss="1104.98" speed="12.79" speedRelative="0.77" departed="100" arrived="0" entered="63" left="161" laneChangedFrom="107" laneChangedTo="107"/>
        <edge id="E32" sampledSeconds="9524.04" traveltime="43.36" overlapTraveltime="43.66" density="4.51" laneDensity="2.26" occupancy="1.12" waitingTime="0.00" timeLoss="1782.61" speed="13.47" speedRelative="0.81" departed="400" arrived="0" entered="0" left="400" laneChangedFrom="58" laneChangedTo="58"/>
        <edge id="E33" sampledSeconds="24954.69" traveltime="49.07" overlapTraveltime="49.39" density="8.85" laneDensity="4.42" occupancy="2.20" waitingTime="0.00" timeLoss="1156.23" speed="15.88" speedRelative="0.95" departed="3" arrived="0" entered="505" left="503" laneChangedFrom="245" laneChangedTo="245"/>
        <edge id="E36" sampledSeconds="11177.17" traveltime="53.46" overlapTraveltime="54.35" density="3.96" laneDensity="1.98" occupancy="0.98" waitingTime="0.00" timeLoss="1174.48" speed="14.43" speedRelative="0.87" departed="0" arrived="0" entered="208" left="204" laneChangedFrom="22" laneChangedTo="22"/>
        <edge id="E4" sampledSeconds="13547.87" traveltime="65.68" overlapTraveltime="66.95" density="4.80" laneDensity="2.40" occupancy="1.19" waitingTime="2218.00" timeLoss="3820.60" speed="11.71" speedRelative="0.70" departed="0" arrived="0" entered="204" left="200" laneChangedFrom="204" laneChangedTo="204"/>
        <edge id="E5" sampledSeconds="22840.23" traveltime="40.95" overlapTraveltime="41.48" density="10.82" laneDensity="5.41" occupancy="2.66" waitingTime="0.00" timeLoss="3135.31" speed="14.18" speedRelative="0.85" departed="300" arrived="0" entered="395" left="691" laneChangedFrom="267" laneChangedTo="267"/>
        <edge id="E6" sampledSeconds="6037.83" traveltime="58.00" overlapTraveltime="59.07" density="2.13" laneDensity="1.06" occupancy="0.53" waitingTime="604.00" timeLoss="1202.63" speed="13.34" speedRelative="0.80" departed="0" arrived="3" entered="103" left="96" laneChangedFrom="112" laneChangedTo="112"/>
        <edge id="E7" sampledSeconds="4433.42" traveltime="24.17" overlapTraveltime="24.48" density="3.23" laneDensity="1.61" occupancy="0.79" waitingTime="0.00" timeLoss="262.27" speed="15.69" speedRelative="0.94" departed="0" arrived="0" entered="184" left="178" laneChangedFrom="85" laneChangedTo="85"/>
        <edge id="E9" sampledSeconds="2818.04" traveltime="52.88" overlapTraveltime="54.52" density="2.05" laneDensity="1.03" occupancy="0.50" waitingTime="906.00" timeLoss="1553.32" speed="7.05" speedRelative="0.42" departed="100" arrived="0" entered="0" left="100" laneChangedFrom="0" laneChangedTo="0"/>
    </interval>
</meandata>
