<?xml version="1.0" encoding="UTF-8"?>

<!-- generated on 2024-12-23 23:28:39 by Eclipse SUMO GUI Version 1.21.0
<sumoConfiguration xmlns:xsi="http://www.w3.org/2001/XMLSchema-instance" xsi:noNamespaceSchemaLocation="http://sumo.dlr.de/xsd/sumoConfiguration.xsd">

    <input>
        <net-file value="D:\All Python\Pure-Python\P4\03-Advanced transportation\SUMO\Project\Scenario base\Project_KeivanJamali.net.xml"/>
        <route-files value="D:\All Python\Pure-Python\P4\03-Advanced transportation\SUMO\Project\Scenario base\Project_KeivanJamali.rou.xml"/>
    </input>

    <output>
        <tripinfo-output value="D:\All Python\Pure-Python\P4\03-Advanced transportation\SUMO\Project\Scenario base\TripInfo.xml"/>
        <edgedata-output value="D:\All Python\Pure-Python\P4\03-Advanced transportation\SUMO\Project\Scenario base\EdgeData.xml"/>
    </output>

    <time>
        <begin value="0"/>
        <end value="3600"/>
    </time>

</sumoConfiguration>
-->

<meandata xmlns:xsi="http://www.w3.org/2001/XMLSchema-instance" xsi:noNamespaceSchemaLocation="http://sumo.dlr.de/xsd/meandata_file.xsd">
    <interval begin="0.00" end="3600.00" id="DEFAULT_EDGEDATA">
        <edge id="-E0" sampledSeconds="25927.32" traveltime="140.50" overlapTraveltime="141.11" density="3.29" laneDensity="1.65" occupancy="0.82" waitingTime="0.00" timeLoss="1319.56" speed="15.54" speedRelative="0.93" departed="0" arrived="0" entered="187" left="179" laneChangedFrom="129" laneChangedTo="129"/>
        <edge id="-E10" sampledSeconds="11771.60" traveltime="50.35" overlapTraveltime="52.49" density="4.20" laneDensity="2.10" occupancy="1.01" waitingTime="332.00" timeLoss="1174.18" speed="14.94" speedRelative="0.90" departed="0" arrived="0" entered="225" left="223" laneChangedFrom="231" laneChangedTo="231"/>
        <edge id="-E11" sampledSeconds="6913.25" traveltime="45.34" overlapTraveltime="46.75" density="3.32" laneDensity="1.66" occupancy="0.82" waitingTime="175.00" timeLoss="1741.25" speed="12.50" speedRelative="0.75" departed="200" arrived="0" entered="45" left="243" laneChangedFrom="95" laneChangedTo="95"/>
        <edge id="-E12" sampledSeconds="154.31" traveltime="36.06" overlapTraveltime="38.58" density="0.06" laneDensity="0.03" occupancy="0.02" waitingTime="2.00" timeLoss="18.44" speed="20.37" speedRelative="1.22" departed="0" arrived="0" entered="4" left="4" laneChangedFrom="4" laneChangedTo="4"/>
        <edge id="-E13" sampledSeconds="15747.31" traveltime="118.38" overlapTraveltime="118.86" density="2.45" laneDensity="1.23" occupancy="0.61" waitingTime="0.00" timeLoss="1483.81" speed="15.04" speedRelative="0.90" departed="200" arrived="0" entered="43" left="241" laneChangedFrom="49" laneChangedTo="49"/>
        <edge id="-E15" sampledSeconds="3043.75" traveltime="57.68" overlapTraveltime="58.70" density="1.09" laneDensity="0.54" occupancy="0.27" waitingTime="117.00" timeLoss="348.96" speed="13.36" speedRelative="0.80" departed="0" arrived="0" entered="52" left="51" laneChangedFrom="52" laneChangedTo="52"/>
        <edge id="-E16" sampledSeconds="15113.76" traveltime="48.50" overlapTraveltime="48.81" density="5.54" laneDensity="2.77" occupancy="1.37" waitingTime="0.00" timeLoss="798.70" speed="15.64" speedRelative="0.94" departed="0" arrived="0" entered="312" left="307" laneChangedFrom="134" laneChangedTo="134"/>
        <edge id="-E17" sampledSeconds="13580.05" traveltime="24.47" overlapTraveltime="24.81" density="9.95" laneDensity="4.97" occupancy="2.45" waitingTime="0.00" timeLoss="716.04" speed="15.49" speedRelative="0.93" departed="0" arrived="0" entered="549" left="544" laneChangedFrom="148" laneChangedTo="148"/>
        <edge id="-E18" sampledSeconds="1196.24" traveltime="23.65" overlapTraveltime="23.97" density="0.89" laneDensity="0.44" occupancy="0.22" waitingTime="0.00" timeLoss="47.01" speed="15.86" speedRelative="0.95" departed="0" arrived="97" entered="97" left="0" laneChangedFrom="1" laneChangedTo="1"/>
        <edge id="-E20" sampledSeconds="21457.08" traveltime="54.12" overlapTraveltime="55.06" density="7.68" laneDensity="3.84" occupancy="1.89" waitingTime="811.00" timeLoss="3080.15" speed="14.18" speedRelative="0.85" departed="0" arrived="187" entered="487" left="295" laneChangedFrom="265" laneChangedTo="265"/>
        <edge id="-E21" sampledSeconds="5536.33" traveltime="31.74" overlapTraveltime="32.74" density="4.01" laneDensity="2.01" occupancy="0.98" waitingTime="0.00" timeLoss="1428.23" speed="11.86" speedRelative="0.71" departed="300" arrived="2" entered="2" left="300" laneChangedFrom="1" laneChangedTo="1"/>
        <edge id="-E22" sampledSeconds="3982.20" traveltime="24.50" overlapTraveltime="26.27" density="2.90" laneDensity="1.45" occupancy="0.69" waitingTime="141.00" timeLoss="507.48" speed="14.72" speedRelative="0.88" departed="0" arrived="0" entered="152" left="151" laneChangedFrom="121" laneChangedTo="121"/>
        <edge id="-E23" sampledSeconds="5073.63" traveltime="50.51" overlapTraveltime="51.26" density="1.81" laneDensity="0.90" occupancy="0.45" waitingTime="7.00" timeLoss="347.54" speed="15.30" speedRelative="0.92" departed="0" arrived="0" entered="99" left="98" laneChangedFrom="100" laneChangedTo="100"/>
        <edge id="-E24" sampledSeconds="3120.99" traveltime="56.52" overlapTraveltime="56.81" density="0.91" laneDensity="0.45" occupancy="0.23" waitingTime="0.00" timeLoss="135.30" speed="16.91" speedRelative="1.01" departed="0" arrived="0" entered="55" left="54" laneChangedFrom="30" laneChangedTo="30"/>
        <edge id="-E25" sampledSeconds="13247.47" traveltime="128.01" overlapTraveltime="128.34" density="1.91" laneDensity="0.96" occupancy="0.48" waitingTime="0.00" timeLoss="1214.48" speed="15.01" speedRelative="0.90" departed="200" arrived="0" entered="0" left="195" laneChangedFrom="29" laneChangedTo="29"/>
        <edge id="-E26" sampledSeconds="24632.07" traveltime="48.99" overlapTraveltime="49.34" density="8.93" laneDensity="4.46" occupancy="2.22" waitingTime="0.00" timeLoss="1596.08" speed="15.63" speedRelative="0.94" departed="0" arrived="95" entered="547" left="446" laneChangedFrom="122" laneChangedTo="122"/>
        <edge id="-E27" sampledSeconds="1751.08" traveltime="42.71" overlapTraveltime="43.78" density="0.85" laneDensity="0.42" occupancy="0.21" waitingTime="244.00" timeLoss="455.50" speed="13.20" speedRelative="0.79" departed="0" arrived="0" entered="40" left="40" laneChangedFrom="40" laneChangedTo="40"/>
        <edge id="-E28" sampledSeconds="10135.44" traveltime="26.86" overlapTraveltime="27.67" density="7.42" laneDensity="3.71" occupancy="1.81" waitingTime="0.00" timeLoss="1597.67" speed="13.89" speedRelative="0.83" departed="0" arrived="0" entered="367" left="366" laneChangedFrom="4" laneChangedTo="4"/>
        <edge id="-E3" sampledSeconds="11003.21" traveltime="48.60" overlapTraveltime="49.40" density="3.92" laneDensity="1.96" occupancy="0.97" waitingTime="0.00" timeLoss="684.12" speed="15.87" speedRelative="0.95" departed="0" arrived="0" entered="225" left="221" laneChangedFrom="223" laneChangedTo="223"/>
        <edge id="-E32" sampledSeconds="1765.78" traveltime="39.69" overlapTraveltime="41.06" density="0.84" laneDensity="0.42" occupancy="0.20" waitingTime="0.00" timeLoss="218.98" speed="14.32" speedRelative="0.86" departed="0" arrived="0" entered="43" left="43" laneChangedFrom="1" laneChangedTo="1"/>
        <edge id="-E34" sampledSeconds="1922.60" traveltime="47.38" overlapTraveltime="48.07" density="0.69" laneDensity="0.34" occupancy="0.17" waitingTime="0.00" timeLoss="162.61" speed="16.32" speedRelative="0.98" departed="0" arrived="0" entered="40" left="40" laneChangedFrom="40" laneChangedTo="40"/>
        <edge id="-E35" sampledSeconds="7160.89" traveltime="53.31" overlapTraveltime="54.17" density="2.55" laneDensity="1.28" occupancy="0.63" waitingTime="215.00" timeLoss="1029.84" speed="14.48" speedRelative="0.87" departed="0" arrived="91" entered="178" left="85" laneChangedFrom="95" laneChangedTo="95"/>
        <edge id="-E36" sampledSeconds="10680.79" traveltime="48.51" overlapTraveltime="48.82" density="3.81" laneDensity="1.90" occupancy="0.94" waitingTime="0.00" timeLoss="634.91" speed="16.06" speedRelative="0.96" departed="0" arrived="0" entered="221" left="217" laneChangedFrom="200" laneChangedTo="200"/>
        <edge id="-E4" sampledSeconds="11219.41" traveltime="49.18" overlapTraveltime="49.49" density="4.00" laneDensity="2.00" occupancy="0.99" waitingTime="0.00" timeLoss="801.91" speed="15.85" speedRelative="0.95" departed="0" arrived="0" entered="229" left="225" laneChangedFrom="48" laneChangedTo="48"/>
        <edge id="-E5" sampledSeconds="11098.57" traveltime="37.95" overlapTraveltime="38.47" density="5.29" laneDensity="2.64" occupancy="1.30" waitingTime="0.00" timeLoss="706.08" speed="15.29" speedRelative="0.92" departed="0" arrived="185" entered="375" left="187" laneChangedFrom="210" laneChangedTo="210"/>
        <edge id="-E6" sampledSeconds="71.52" traveltime="34.79" overlapTraveltime="35.76" density="0.03" laneDensity="0.01" occupancy="0.01" waitingTime="0.00" timeLoss="8.54" speed="22.08" speedRelative="1.32" departed="0" arrived="0" entered="2" left="2" laneChangedFrom="1" laneChangedTo="1"/>
        <edge id="-E7" sampledSeconds="11242.58" traveltime="24.29" overlapTraveltime="24.61" density="8.24" laneDensity="4.12" occupancy="2.03" waitingTime="0.00" timeLoss="505.11" speed="15.61" speedRelative="0.94" departed="0" arrived="0" entered="457" left="456" laneChangedFrom="152" laneChangedTo="152"/>
        <edge id="-E9" sampledSeconds="4697.63" traveltime="25.18" overlapTraveltime="26.00" density="3.44" laneDensity="1.72" occupancy="0.84" waitingTime="0.00" timeLoss="518.02" speed="14.77" speedRelative="0.89" departed="0" arrived="0" entered="181" left="178" laneChangedFrom="181" laneChangedTo="181"/>
        <edge id="E0" sampledSeconds="31080.63" traveltime="146.99" overlapTraveltime="149.04" density="3.95" laneDensity="1.97" occupancy="0.98" waitingTime="0.00" timeLoss="3287.57" speed="14.71" speedRelative="0.88" departed="400" arrived="0" entered="0" left="392" laneChangedFrom="245" laneChangedTo="245"/>
        <edge id="E1" sampledSeconds="3720.17" traveltime="38.70" overlapTraveltime="39.03" density="1.77" laneDensity="0.89" occupancy="0.44" waitingTime="0.00" timeLoss="335.30" speed="15.07" speedRelative="0.90" departed="4" arrived="178" entered="179" left="4" laneChangedFrom="10" laneChangedTo="10"/>
        <edge id="E10" sampledSeconds="27834.19" traveltime="54.01" overlapTraveltime="54.99" density="9.92" laneDensity="4.96" occupancy="2.45" waitingTime="294.00" timeLoss="3598.01" speed="14.26" speedRelative="0.86" departed="200" arrived="0" entered="407" left="598" laneChangedFrom="275" laneChangedTo="275"/>
        <edge id="E11" sampledSeconds="9601.97" traveltime="38.14" overlapTraveltime="38.74" density="4.60" laneDensity="2.30" occupancy="1.14" waitingTime="53.00" timeLoss="818.82" speed="15.08" speedRelative="0.90" departed="0" arrived="283" entered="383" left="97" laneChangedFrom="155" laneChangedTo="155"/>
        <edge id="E12" sampledSeconds="10140.25" traveltime="50.68" overlapTraveltime="51.54" density="3.61" laneDensity="1.81" occupancy="0.89" waitingTime="0.00" timeLoss="667.78" speed="15.22" speedRelative="0.91" departed="0" arrived="0" entered="200" left="196" laneChangedFrom="26" laneChangedTo="26"/>
        <edge id="E13" sampledSeconds="5781.96" traveltime="114.76" overlapTraveltime="115.08" density="0.90" laneDensity="0.45" occupancy="0.22" waitingTime="0.00" timeLoss="315.59" speed="15.54" speedRelative="0.93" departed="0" arrived="95" entered="97" left="0" laneChangedFrom="91" laneChangedTo="91"/>
        <edge id="E14" sampledSeconds="14163.04" traveltime="49.14" overlapTraveltime="49.45" density="5.05" laneDensity="2.52" occupancy="1.26" waitingTime="0.00" timeLoss="951.41" speed="15.86" speedRelative="0.95" departed="100" arrived="0" entered="237" left="332" laneChangedFrom="109" laneChangedTo="109"/>
        <edge id="E15" sampledSeconds="2923.53" traveltime="54.65" overlapTraveltime="54.95" density="1.04" laneDensity="0.52" occupancy="0.26" waitingTime="0.00" timeLoss="459.55" speed="14.27" speedRelative="0.86" departed="100" arrived="4" entered="4" left="99" laneChangedFrom="7" laneChangedTo="7"/>
        <edge id="E16" sampledSeconds="7787.66" traveltime="82.34" overlapTraveltime="83.75" density="2.85" laneDensity="1.43" occupancy="0.71" waitingTime="2592.00" timeLoss="3458.20" speed="9.12" speedRelative="0.55" departed="0" arrived="0" entered="93" left="92" laneChangedFrom="93" laneChangedTo="93"/>
        <edge id="E17" sampledSeconds="2252.54" traveltime="24.94" overlapTraveltime="25.25" density="1.65" laneDensity="0.83" occupancy="0.41" waitingTime="0.00" timeLoss="177.58" speed="15.21" speedRelative="0.91" departed="0" arrived="0" entered="91" left="88" laneChangedFrom="78" laneChangedTo="78"/>
        <edge id="E18" sampledSeconds="12967.64" traveltime="24.29" overlapTraveltime="24.62" density="9.60" laneDensity="4.80" occupancy="2.37" waitingTime="0.00" timeLoss="750.56" speed="15.44" speedRelative="0.93" departed="0" arrived="0" entered="527" left="526" laneChangedFrom="44" laneChangedTo="44"/>
        <edge id="E19" sampledSeconds="3499.73" traveltime="64.15" overlapTraveltime="65.50" density="1.15" laneDensity="0.57" occupancy="0.28" waitingTime="539.00" timeLoss="914.74" speed="13.04" speedRelative="0.78" departed="0" arrived="0" entered="54" left="52" laneChangedFrom="56" laneChangedTo="56"/>
        <edge id="E2" sampledSeconds="3994.85" traveltime="39.67" overlapTraveltime="40.02" density="1.92" laneDensity="0.96" occupancy="0.47" waitingTime="0.00" timeLoss="467.93" speed="14.60" speedRelative="0.88" departed="0" arrived="194" entered="196" left="0" laneChangedFrom="19" laneChangedTo="19"/>
        <edge id="E20" sampledSeconds="3649.60" traveltime="68.30" overlapTraveltime="70.29" density="1.31" laneDensity="0.65" occupancy="0.32" waitingTime="436.00" timeLoss="1191.80" speed="11.11" speedRelative="0.67" departed="100" arrived="0" entered="0" left="99" laneChangedFrom="100" laneChangedTo="100"/>
        <edge id="E21" sampledSeconds="4791.21" traveltime="24.69" overlapTraveltime="25.17" density="3.47" laneDensity="1.74" occupancy="0.86" waitingTime="0.00" timeLoss="309.86" speed="15.42" speedRelative="0.93" departed="0" arrived="186" entered="288" left="102" laneChangedFrom="100" laneChangedTo="100"/>
        <edge id="E22" sampledSeconds="14607.55" traveltime="26.99" overlapTraveltime="27.88" density="10.63" laneDensity="5.32" occupancy="2.60" waitingTime="0.00" timeLoss="1914.12" speed="13.87" speedRelative="0.83" departed="0" arrived="0" entered="525" left="522" laneChangedFrom="60" laneChangedTo="60"/>
        <edge id="E23" sampledSeconds="25690.01" traveltime="53.18" overlapTraveltime="54.17" density="9.16" laneDensity="4.58" occupancy="2.25" waitingTime="71.00" timeLoss="2837.29" speed="14.48" speedRelative="0.87" departed="0" arrived="94" entered="522" left="419" laneChangedFrom="441" laneChangedTo="441"/>
        <edge id="E25" sampledSeconds="46995.65" traveltime="121.78" overlapTraveltime="122.36" density="6.79" laneDensity="3.40" occupancy="1.69" waitingTime="0.00" timeLoss="2290.47" speed="15.75" speedRelative="0.94" departed="0" arrived="0" entered="390" left="376" laneChangedFrom="590" laneChangedTo="590"/>
        <edge id="E26" sampledSeconds="4820.40" traveltime="48.45" overlapTraveltime="48.76" density="1.75" laneDensity="0.87" occupancy="0.43" waitingTime="0.00" timeLoss="191.53" speed="15.82" speedRelative="0.95" departed="0" arrived="195" entered="195" left="0" laneChangedFrom="18" laneChangedTo="18"/>
        <edge id="E29" sampledSeconds="10955.27" traveltime="61.53" overlapTraveltime="61.85" density="3.17" laneDensity="1.58" occupancy="0.79" waitingTime="0.00" timeLoss="601.13" speed="15.60" speedRelative="0.94" departed="0" arrived="363" entered="366" left="0" laneChangedFrom="245" laneChangedTo="245"/>
        <edge id="E3" sampledSeconds="10788.24" traveltime="51.06" overlapTraveltime="51.38" density="3.85" laneDensity="1.92" occupancy="0.95" waitingTime="0.00" timeLoss="767.16" speed="15.26" speedRelative="0.92" departed="2" arrived="0" entered="208" left="210" laneChangedFrom="103" laneChangedTo="103"/>
        <edge id="E30" sampledSeconds="5769.75" traveltime="24.08" overlapTraveltime="24.48" density="4.23" laneDensity="2.11" occupancy="1.04" waitingTime="0.00" timeLoss="314.36" speed="15.70" speedRelative="0.94" departed="0" arrived="279" entered="379" left="98" laneChangedFrom="59" laneChangedTo="59"/>
        <edge id="E31" sampledSeconds="4856.09" traveltime="44.86" overlapTraveltime="46.17" density="2.33" laneDensity="1.16" occupancy="0.57" waitingTime="202.00" timeLoss="1075.00" speed="12.65" speedRelative="0.76" departed="100" arrived="0" entered="58" left="157" laneChangedFrom="113" laneChangedTo="113"/>
        <edge id="E32" sampledSeconds="9049.89" traveltime="43.65" overlapTraveltime="43.95" density="4.31" laneDensity="2.16" occupancy="1.07" waitingTime="0.00" timeLoss="1753.12" speed="13.38" speedRelative="0.80" departed="400" arrived="0" entered="0" left="398" laneChangedFrom="52" laneChangedTo="52"/>
        <edge id="E33" sampledSeconds="25331.81" traveltime="49.15" overlapTraveltime="49.47" density="9.03" laneDensity="4.52" occupancy="2.25" waitingTime="0.00" timeLoss="1190.32" speed="15.85" speedRelative="0.95" departed="3" arrived="0" entered="512" left="507" laneChangedFrom="236" laneChangedTo="236"/>
        <edge id="E36" sampledSeconds="11437.12" traveltime="53.40" overlapTraveltime="54.28" density="4.08" laneDensity="2.04" occupancy="1.00" waitingTime="0.00" timeLoss="1199.21" speed="14.45" speedRelative="0.87" departed="0" arrived="0" entered="212" left="208" laneChangedFrom="26" laneChangedTo="26"/>
        <edge id="E4" sampledSeconds="13835.81" traveltime="65.36" overlapTraveltime="66.59" density="4.93" laneDensity="2.47" occupancy="1.22" waitingTime="2308.00" timeLoss="3855.62" speed="11.78" speedRelative="0.71" departed="0" arrived="0" entered="210" left="206" laneChangedFrom="212" laneChangedTo="212"/>
        <edge id="E5" sampledSeconds="22764.03" traveltime="40.95" overlapTraveltime="41.47" density="10.84" laneDensity="5.42" occupancy="2.66" waitingTime="0.00" timeLoss="3101.54" speed="14.18" speedRelative="0.85" departed="300" arrived="0" entered="392" left="685" laneChangedFrom="277" laneChangedTo="277"/>
        <edge id="E6" sampledSeconds="6105.69" traveltime="59.34" overlapTraveltime="60.44" density="2.17" laneDensity="1.08" occupancy="0.54" waitingTime="735.00" timeLoss="1331.18" speed="13.04" speedRelative="0.78" departed="0" arrived="3" entered="102" left="96" laneChangedFrom="107" laneChangedTo="107"/>
        <edge id="E7" sampledSeconds="4221.33" traveltime="24.20" overlapTraveltime="24.51" density="3.09" laneDensity="1.55" occupancy="0.76" waitingTime="0.00" timeLoss="251.98" speed="15.68" speedRelative="0.94" departed="0" arrived="0" entered="173" left="171" laneChangedFrom="76" laneChangedTo="76"/>
        <edge id="E9" sampledSeconds="2757.61" traveltime="47.88" overlapTraveltime="49.36" density="2.02" laneDensity="1.01" occupancy="0.50" waitingTime="751.00" timeLoss="1386.47" speed="7.78" speedRelative="0.47" departed="100" arrived="0" entered="0" left="100" laneChangedFrom="0" laneChangedTo="0"/>
    </interval>
</meandata>
