<?xml version="1.0" encoding="UTF-8"?>

<!-- generated on 2024-12-23 23:28:39 by Eclipse SUMO GUI Version 1.21.0
<sumoConfiguration xmlns:xsi="http://www.w3.org/2001/XMLSchema-instance" xsi:noNamespaceSchemaLocation="http://sumo.dlr.de/xsd/sumoConfiguration.xsd">

    <input>
        <net-file value="D:\All Python\Pure-Python\P4\03-Advanced transportation\SUMO\Project\Scenario base\Project_KeivanJamali.net.xml"/>
        <route-files value="D:\All Python\Pure-Python\P4\03-Advanced transportation\SUMO\Project\Scenario base\Project_KeivanJamali.rou.xml"/>
    </input>

    <output>
        <tripinfo-output value="D:\All Python\Pure-Python\P4\03-Advanced transportation\SUMO\Project\Scenario base\TripInfo.xml"/>
        <edgedata-output value="D:\All Python\Pure-Python\P4\03-Advanced transportation\SUMO\Project\Scenario base\EdgeData.xml"/>
    </output>

    <time>
        <begin value="0"/>
        <end value="3600"/>
    </time>

</sumoConfiguration>
-->

<tripinfos xmlns:xsi="http://www.w3.org/2001/XMLSchema-instance" xsi:noNamespaceSchemaLocation="http://sumo.dlr.de/xsd/tripinfo_file.xsd">
    <tripinfo id="f4.1" depart="18.00" departLane="-E13_0" departPos="1655.00" departSpeed="0.00" departDelay="0.00" arrival="89.00" arrivalLane="E2_0" arrivalPos="87.94" arrivalSpeed="15.86" duration="71.00" routeLength="1025.17" waitingTime="0.00" waitingCount="0" stopTime="0.00" timeLoss="8.92" rerouteNo="1" devices="tripinfo_f4.1 routing_f4.1" vType="Naive_passenger_vehicles" speedFactor="1.01" vaporized=""/>
    <tripinfo id="f6.2" depart="36.00" departLane="-E25_0" departPos="1500.90" departSpeed="0.00" departDelay="0.00" arrival="90.00" arrivalLane="E26_0" arrivalPos="324.36" arrivalSpeed="16.44" duration="54.00" routeLength="790.98" waitingTime="0.00" waitingCount="0" stopTime="0.00" timeLoss="5.92" rerouteNo="0" devices="tripinfo_f6.2 routing_f6.2" vType="Naive_passenger_vehicles" speedFactor="0.99" vaporized=""/>
    <tripinfo id="f5.0" depart="0.00" departLane="E15_0" departPos="595.70" departSpeed="0.00" departDelay="0.00" arrival="99.00" arrivalLane="-E18_0" arrivalPos="120.81" arrivalSpeed="16.58" duration="99.00" routeLength="1527.61" waitingTime="0.00" waitingCount="0" stopTime="0.00" timeLoss="10.68" rerouteNo="1" devices="tripinfo_f5.0 routing_f5.0" vType="Naive_passenger_vehicles" speedFactor="1.05" vaporized=""/>
    <tripinfo id="f5.1" depart="36.00" departLane="E15_0" departPos="515.69" departSpeed="0.00" departDelay="0.00" arrival="141.00" arrivalLane="-E18_0" arrivalPos="347.06" arrivalSpeed="19.09" duration="105.00" routeLength="1833.87" waitingTime="0.00" waitingCount="0" stopTime="0.00" timeLoss="10.27" rerouteNo="1" devices="tripinfo_f5.1 routing_f5.1" vType="Naive_passenger_vehicles" speedFactor="1.17" vaporized=""/>
    <tripinfo id="f6.3" depart="54.00" departLane="-E25_0" departPos="927.62" departSpeed="0.00" departDelay="0.00" arrival="141.00" arrivalLane="E26_0" arrivalPos="78.84" arrivalSpeed="12.92" duration="87.00" routeLength="1118.75" waitingTime="0.00" waitingCount="0" stopTime="0.00" timeLoss="7.26" rerouteNo="0" devices="tripinfo_f6.3 routing_f6.3" vType="Naive_passenger_vehicles" speedFactor="0.85" vaporized=""/>
    <tripinfo id="f6.1" depart="18.00" departLane="-E25_0" departPos="128.71" departSpeed="0.00" departDelay="0.00" arrival="148.00" arrivalLane="E26_0" arrivalPos="129.06" arrivalSpeed="15.50" duration="130.00" routeLength="1967.88" waitingTime="0.00" waitingCount="0" stopTime="0.00" timeLoss="8.05" rerouteNo="0" devices="tripinfo_f6.1 routing_f6.1" vType="Naive_passenger_vehicles" speedFactor="0.97" vaporized=""/>
    <tripinfo id="f6.0" depart="0.00" departLane="-E25_0" departPos="305.77" departSpeed="0.00" departDelay="0.00" arrival="153.00" arrivalLane="E26_0" arrivalPos="452.14" arrivalSpeed="14.11" duration="153.00" routeLength="2113.91" waitingTime="0.00" waitingCount="0" stopTime="0.00" timeLoss="9.62" rerouteNo="0" devices="tripinfo_f6.0 routing_f6.0" vType="Naive_passenger_vehicles" speedFactor="0.89" vaporized=""/>
    <tripinfo id="f8.0" depart="0.00" departLane="E9_0" departPos="11.31" departSpeed="0.00" departDelay="0.00" arrival="155.00" arrivalLane="E13_0" arrivalPos="107.45" arrivalSpeed="14.08" duration="155.00" routeLength="1882.92" waitingTime="0.00" waitingCount="0" stopTime="0.00" timeLoss="20.42" rerouteNo="1" devices="tripinfo_f8.0 routing_f8.0" vType="Naive_passenger_vehicles" speedFactor="0.86" vaporized=""/>
    <tripinfo id="f9.0" depart="0.00" departLane="E14_0" departPos="533.81" departSpeed="0.00" departDelay="0.00" arrival="155.00" arrivalLane="-E26_1" arrivalPos="433.99" arrivalSpeed="17.71" duration="155.00" routeLength="2498.74" waitingTime="2.00" waitingCount="1" stopTime="0.00" timeLoss="16.31" rerouteNo="1" devices="tripinfo_f9.0 routing_f9.0" vType="Naive_passenger_vehicles" speedFactor="1.09" vaporized=""/>
    <tripinfo id="f4.2" depart="36.00" departLane="-E13_0" departPos="831.55" departSpeed="0.00" departDelay="0.00" arrival="170.00" arrivalLane="E2_0" arrivalPos="263.99" arrivalSpeed="15.89" duration="134.00" routeLength="2024.66" waitingTime="0.00" waitingCount="0" stopTime="0.00" timeLoss="11.26" rerouteNo="1" devices="tripinfo_f4.2 routing_f4.2" vType="Naive_passenger_vehicles" speedFactor="1.01" vaporized=""/>
    <tripinfo id="f4.3" depart="54.00" departLane="-E13_0" departPos="1582.07" departSpeed="0.00" departDelay="0.00" arrival="171.00" arrivalLane="E2_0" arrivalPos="547.22" arrivalSpeed="14.01" duration="117.00" routeLength="1557.38" waitingTime="0.00" waitingCount="0" stopTime="0.00" timeLoss="9.86" rerouteNo="1" devices="tripinfo_f4.3 routing_f4.3" vType="Naive_passenger_vehicles" speedFactor="0.88" vaporized=""/>
    <tripinfo id="f4.0" depart="0.00" departLane="-E13_0" departPos="538.10" departSpeed="0.00" departDelay="0.00" arrival="176.00" arrivalLane="E2_0" arrivalPos="177.85" arrivalSpeed="13.34" duration="176.00" routeLength="2231.98" waitingTime="0.00" waitingCount="0" stopTime="0.00" timeLoss="12.96" rerouteNo="1" devices="tripinfo_f4.0 routing_f4.0" vType="Naive_passenger_vehicles" speedFactor="0.83" vaporized=""/>
    <tripinfo id="f4.4" depart="72.00" departLane="-E13_0" departPos="1517.09" departSpeed="0.00" departDelay="0.00" arrival="178.00" arrivalLane="E2_0" arrivalPos="457.29" arrivalSpeed="15.77" duration="106.00" routeLength="1532.43" waitingTime="0.00" waitingCount="0" stopTime="0.00" timeLoss="10.06" rerouteNo="1" devices="tripinfo_f4.4 routing_f4.4" vType="Naive_passenger_vehicles" speedFactor="0.97" vaporized=""/>
    <tripinfo id="f4.5" depart="90.00" departLane="-E13_0" departPos="1632.75" departSpeed="0.00" departDelay="0.00" arrival="185.00" arrivalLane="E2_1" arrivalPos="316.07" arrivalSpeed="15.32" duration="95.00" routeLength="1275.55" waitingTime="0.00" waitingCount="0" stopTime="0.00" timeLoss="16.10" rerouteNo="1" devices="tripinfo_f4.5 routing_f4.5" vType="Naive_passenger_vehicles" speedFactor="0.98" vaporized=""/>
    <tripinfo id="f5.2" depart="72.00" departLane="E15_0" departPos="362.97" departSpeed="0.00" departDelay="0.00" arrival="192.00" arrivalLane="-E18_0" arrivalPos="300.85" arrivalSpeed="17.63" duration="120.00" routeLength="1940.38" waitingTime="0.00" waitingCount="0" stopTime="0.00" timeLoss="11.61" rerouteNo="1" devices="tripinfo_f5.2 routing_f5.2" vType="Naive_passenger_vehicles" speedFactor="1.08" vaporized=""/>
    <tripinfo id="f4.6" depart="108.00" departLane="-E13_0" departPos="1318.40" departSpeed="0.00" departDelay="0.00" arrival="202.00" arrivalLane="E2_0" arrivalPos="125.09" arrivalSpeed="16.06" duration="94.00" routeLength="1398.93" waitingTime="0.00" waitingCount="0" stopTime="0.00" timeLoss="8.85" rerouteNo="1" devices="tripinfo_f4.6 routing_f4.6" vType="Naive_passenger_vehicles" speedFactor="1.00" vaporized=""/>
    <tripinfo id="f6.9" depart="162.00" departLane="-E25_0" departPos="1782.17" departSpeed="0.00" departDelay="0.00" arrival="202.00" arrivalLane="E26_0" arrivalPos="400.98" arrivalSpeed="16.23" duration="40.00" routeLength="586.34" waitingTime="0.00" waitingCount="0" stopTime="0.00" timeLoss="5.17" rerouteNo="0" devices="tripinfo_f6.9 routing_f6.9" vType="Naive_passenger_vehicles" speedFactor="1.03" vaporized=""/>
    <tripinfo id="f9.1" depart="36.00" departLane="E14_0" departPos="96.85" departSpeed="0.00" departDelay="0.00" arrival="205.00" arrivalLane="-E26_1" arrivalPos="232.02" arrivalSpeed="19.54" duration="169.00" routeLength="2733.72" waitingTime="9.00" waitingCount="2" stopTime="0.00" timeLoss="29.17" rerouteNo="1" devices="tripinfo_f9.1 routing_f9.1" vType="Naive_passenger_vehicles" speedFactor="1.18" vaporized=""/>
    <tripinfo id="f1.0" depart="0.00" departLane="-E21_0" departPos="208.58" departSpeed="0.00" departDelay="0.00" arrival="207.00" arrivalLane="E11_0" arrivalPos="543.89" arrivalSpeed="16.62" duration="207.00" routeLength="3127.00" waitingTime="0.00" waitingCount="0" stopTime="0.00" timeLoss="20.09" rerouteNo="1" devices="tripinfo_f1.0 routing_f1.0" vType="Naive_passenger_vehicles" speedFactor="1.01" vaporized=""/>
    <tripinfo id="f6.4" depart="72.00" departLane="-E25_0" departPos="366.14" departSpeed="0.00" departDelay="0.00" arrival="208.00" arrivalLane="E26_0" arrivalPos="763.91" arrivalSpeed="18.12" duration="136.00" routeLength="2365.30" waitingTime="0.00" waitingCount="0" stopTime="0.00" timeLoss="8.28" rerouteNo="0" devices="tripinfo_f6.4 routing_f6.4" vType="Naive_passenger_vehicles" speedFactor="1.12" vaporized=""/>
    <tripinfo id="f6.5" depart="90.00" departLane="-E25_0" departPos="443.91" departSpeed="0.00" departDelay="0.00" arrival="210.00" arrivalLane="E26_0" arrivalPos="404.91" arrivalSpeed="16.20" duration="120.00" routeLength="1928.53" waitingTime="0.00" waitingCount="0" stopTime="0.00" timeLoss="7.95" rerouteNo="0" devices="tripinfo_f6.5 routing_f6.5" vType="Naive_passenger_vehicles" speedFactor="1.03" vaporized=""/>
    <tripinfo id="f6.6" depart="109.00" departLane="-E25_0" departPos="900.31" departSpeed="0.00" departDelay="1.00" arrival="223.00" arrivalLane="E26_0" arrivalPos="703.77" arrivalSpeed="15.62" duration="114.00" routeLength="1770.99" waitingTime="0.00" waitingCount="0" stopTime="0.00" timeLoss="8.20" rerouteNo="0" devices="tripinfo_f6.6 routing_f6.6" vType="Naive_passenger_vehicles" speedFactor="1.01" vaporized=""/>
    <tripinfo id="f8.2" depart="72.00" departLane="E9_0" departPos="356.72" departSpeed="0.00" departDelay="0.00" arrival="225.00" arrivalLane="E13_0" arrivalPos="792.81" arrivalSpeed="15.62" duration="153.00" routeLength="2222.87" waitingTime="0.00" waitingCount="0" stopTime="0.00" timeLoss="15.93" rerouteNo="1" devices="tripinfo_f8.2 routing_f8.2" vType="Naive_passenger_vehicles" speedFactor="0.99" vaporized=""/>
    <tripinfo id="f7.0" depart="0.00" departLane="E5_0" departPos="557.88" departSpeed="0.00" departDelay="0.00" arrival="227.00" arrivalLane="E30_1" arrivalPos="17.52" arrivalSpeed="11.35" duration="227.00" routeLength="3250.40" waitingTime="0.00" waitingCount="0" stopTime="0.00" timeLoss="17.53" rerouteNo="1" devices="tripinfo_f7.0 routing_f7.0" vType="Naive_passenger_vehicles" speedFactor="0.94" vaporized=""/>
    <tripinfo id="f4.8" depart="144.00" departLane="-E13_0" departPos="1765.94" departSpeed="0.00" departDelay="0.00" arrival="233.00" arrivalLane="E2_0" arrivalPos="494.76" arrivalSpeed="15.78" duration="89.00" routeLength="1321.05" waitingTime="0.00" waitingCount="0" stopTime="0.00" timeLoss="9.15" rerouteNo="1" devices="tripinfo_f4.8 routing_f4.8" vType="Naive_passenger_vehicles" speedFactor="1.01" vaporized=""/>
    <tripinfo id="f3.2" depart="36.00" departLane="-E11_0" departPos="58.80" departSpeed="0.00" departDelay="0.00" arrival="235.00" arrivalLane="-E5_0" arrivalPos="172.81" arrivalSpeed="18.14" duration="199.00" routeLength="3112.56" waitingTime="13.00" waitingCount="1" stopTime="0.00" timeLoss="36.09" rerouteNo="1" devices="tripinfo_f3.2 routing_f3.2" vType="Naive_passenger_vehicles" speedFactor="1.15" vaporized=""/>
    <tripinfo id="f1.4" depart="48.00" departLane="-E21_0" departPos="346.58" departSpeed="0.00" departDelay="0.00" arrival="240.00" arrivalLane="E11_0" arrivalPos="566.58" arrivalSpeed="16.76" duration="192.00" routeLength="3011.69" waitingTime="0.00" waitingCount="0" stopTime="0.00" timeLoss="16.59" rerouteNo="1" devices="tripinfo_f1.4 routing_f1.4" vType="Naive_passenger_vehicles" speedFactor="1.04" vaporized=""/>
    <tripinfo id="f3.0" depart="0.00" departLane="-E11_0" departPos="18.78" departSpeed="0.00" departDelay="0.00" arrival="242.00" arrivalLane="-E5_0" arrivalPos="517.66" arrivalSpeed="16.82" duration="242.00" routeLength="3497.44" waitingTime="17.00" waitingCount="1" stopTime="0.00" timeLoss="36.98" rerouteNo="1" devices="tripinfo_f3.0 routing_f3.0" vType="Naive_passenger_vehicles" speedFactor="1.03" vaporized=""/>
    <tripinfo id="f5.3" depart="108.00" departLane="E15_0" departPos="8.64" departSpeed="0.00" departDelay="0.00" arrival="242.00" arrivalLane="-E18_0" arrivalPos="128.10" arrivalSpeed="16.66" duration="134.00" routeLength="2121.95" waitingTime="0.00" waitingCount="0" stopTime="0.00" timeLoss="10.39" rerouteNo="1" devices="tripinfo_f5.3 routing_f5.3" vType="Naive_passenger_vehicles" speedFactor="1.04" vaporized=""/>
    <tripinfo id="f12.0" depart="0.00" departLane="E20_0" departPos="97.27" departSpeed="0.00" departDelay="0.00" arrival="243.00" arrivalLane="E23_1" arrivalPos="424.88" arrivalSpeed="18.15" duration="243.00" routeLength="3517.59" waitingTime="23.00" waitingCount="1" stopTime="0.00" timeLoss="51.86" rerouteNo="1" devices="tripinfo_f12.0 routing_f12.0" vType="Naive_passenger_vehicles" speedFactor="1.12" vaporized=""/>
    <tripinfo id="f1.1" depart="12.00" departLane="-E21_0" departPos="34.11" departSpeed="0.00" departDelay="0.00" arrival="244.00" arrivalLane="E11_0" arrivalPos="331.08" arrivalSpeed="14.28" duration="232.00" routeLength="3088.65" waitingTime="0.00" waitingCount="0" stopTime="0.00" timeLoss="19.24" rerouteNo="1" devices="tripinfo_f1.1 routing_f1.1" vType="Naive_passenger_vehicles" speedFactor="0.88" vaporized=""/>
    <tripinfo id="f1.2" depart="24.00" departLane="-E21_0" departPos="79.39" departSpeed="0.00" departDelay="0.00" arrival="245.00" arrivalLane="E11_0" arrivalPos="196.36" arrivalSpeed="13.96" duration="221.00" routeLength="2908.66" waitingTime="0.00" waitingCount="0" stopTime="0.00" timeLoss="19.20" rerouteNo="1" devices="tripinfo_f1.2 routing_f1.2" vType="Naive_passenger_vehicles" speedFactor="0.87" vaporized=""/>
    <tripinfo id="f1.5" depart="60.00" departLane="-E21_0" departPos="252.39" departSpeed="0.00" departDelay="0.00" arrival="245.00" arrivalLane="E11_1" arrivalPos="272.39" arrivalSpeed="16.18" duration="185.00" routeLength="2811.69" waitingTime="0.00" waitingCount="0" stopTime="0.00" timeLoss="17.85" rerouteNo="1" devices="tripinfo_f1.5 routing_f1.5" vType="Naive_passenger_vehicles" speedFactor="1.02" vaporized=""/>
    <tripinfo id="f5.4" depart="144.00" departLane="E15_0" departPos="495.18" departSpeed="0.00" departDelay="0.00" arrival="248.00" arrivalLane="-E18_0" arrivalPos="199.08" arrivalSpeed="16.99" duration="104.00" routeLength="1706.41" waitingTime="0.00" waitingCount="0" stopTime="0.00" timeLoss="9.32" rerouteNo="1" devices="tripinfo_f5.4 routing_f5.4" vType="Naive_passenger_vehicles" speedFactor="1.10" vaporized=""/>
    <tripinfo id="f11.0" depart="0.00" departLane="E32_0" departPos="75.45" departSpeed="0.00" departDelay="0.00" arrival="251.00" arrivalLane="-E20_1" arrivalPos="4.68" arrivalSpeed="8.37" duration="251.00" routeLength="4101.34" waitingTime="0.00" waitingCount="0" stopTime="0.00" timeLoss="14.85" rerouteNo="1" devices="tripinfo_f11.0 routing_f11.0" vType="Naive_passenger_vehicles" speedFactor="1.05" vaporized=""/>
    <tripinfo id="f3.3" depart="54.00" departLane="-E11_0" departPos="568.17" departSpeed="0.00" departDelay="0.00" arrival="252.00" arrivalLane="-E5_0" arrivalPos="161.71" arrivalSpeed="14.61" duration="198.00" routeLength="2592.09" waitingTime="5.00" waitingCount="1" stopTime="0.00" timeLoss="23.78" rerouteNo="1" devices="tripinfo_f3.3 routing_f3.3" vType="Naive_passenger_vehicles" speedFactor="0.90" vaporized=""/>
    <tripinfo id="f1.3" depart="36.00" departLane="-E21_0" departPos="131.39" departSpeed="0.00" departDelay="0.00" arrival="254.00" arrivalLane="E11_1" arrivalPos="332.26" arrivalSpeed="15.35" duration="218.00" routeLength="2992.56" waitingTime="2.00" waitingCount="1" stopTime="0.00" timeLoss="23.30" rerouteNo="1" devices="tripinfo_f1.3 routing_f1.3" vType="Naive_passenger_vehicles" speedFactor="0.93" vaporized=""/>
    <tripinfo id="f8.1" depart="36.00" departLane="E9_0" departPos="270.07" departSpeed="0.00" departDelay="0.00" arrival="255.00" arrivalLane="E13_0" arrivalPos="1561.26" arrivalSpeed="15.23" duration="219.00" routeLength="3077.97" waitingTime="0.00" waitingCount="0" stopTime="0.00" timeLoss="27.17" rerouteNo="1" devices="tripinfo_f8.1 routing_f8.1" vType="Naive_passenger_vehicles" speedFactor="0.97" vaporized=""/>
    <tripinfo id="f1.6" depart="72.00" departLane="-E21_0" departPos="352.37" departSpeed="0.00" departDelay="0.00" arrival="256.00" arrivalLane="E11_0" arrivalPos="56.59" arrivalSpeed="14.06" duration="184.00" routeLength="2495.91" waitingTime="0.00" waitingCount="0" stopTime="0.00" timeLoss="16.05" rerouteNo="1" devices="tripinfo_f1.6 routing_f1.6" vType="Naive_passenger_vehicles" speedFactor="0.90" vaporized=""/>
    <tripinfo id="f6.8" depart="144.00" departLane="-E25_0" departPos="994.17" departSpeed="0.00" departDelay="0.00" arrival="256.00" arrivalLane="E26_0" arrivalPos="625.24" arrivalSpeed="14.44" duration="112.00" routeLength="1598.60" waitingTime="0.00" waitingCount="0" stopTime="0.00" timeLoss="7.43" rerouteNo="0" devices="tripinfo_f6.8 routing_f6.8" vType="Naive_passenger_vehicles" speedFactor="0.92" vaporized=""/>
    <tripinfo id="f10.0" depart="0.00" departLane="E32_0" departPos="193.22" departSpeed="0.00" departDelay="0.00" arrival="257.00" arrivalLane="E21_0" arrivalPos="178.63" arrivalSpeed="17.09" duration="257.00" routeLength="4159.72" waitingTime="0.00" waitingCount="0" stopTime="0.00" timeLoss="13.61" rerouteNo="1" devices="tripinfo_f10.0 routing_f10.0" vType="Naive_passenger_vehicles" speedFactor="1.03" vaporized=""/>
    <tripinfo id="f9.2" depart="72.00" departLane="E14_0" departPos="171.91" departSpeed="0.00" departDelay="0.00" arrival="258.00" arrivalLane="-E26_0" arrivalPos="247.87" arrivalSpeed="14.49" duration="186.00" routeLength="2674.52" waitingTime="0.00" waitingCount="0" stopTime="0.00" timeLoss="13.61" rerouteNo="1" devices="tripinfo_f9.2 routing_f9.2" vType="Naive_passenger_vehicles" speedFactor="0.94" vaporized=""/>
    <tripinfo id="f1.7" depart="84.00" departLane="-E21_0" departPos="225.50" departSpeed="0.00" departDelay="0.00" arrival="262.00" arrivalLane="E11_0" arrivalPos="69.17" arrivalSpeed="17.03" duration="178.00" routeLength="2635.37" waitingTime="1.00" waitingCount="1" stopTime="0.00" timeLoss="21.56" rerouteNo="1" devices="tripinfo_f1.7 routing_f1.7" vType="Naive_passenger_vehicles" speedFactor="1.02" vaporized=""/>
    <tripinfo id="f3.1" depart="18.00" departLane="-E11_0" departPos="316.69" departSpeed="0.00" departDelay="0.00" arrival="263.00" arrivalLane="-E5_0" arrivalPos="545.32" arrivalSpeed="16.64" duration="245.00" routeLength="3227.18" waitingTime="30.00" waitingCount="2" stopTime="0.00" timeLoss="54.08" rerouteNo="1" devices="tripinfo_f3.1 routing_f3.1" vType="Naive_passenger_vehicles" speedFactor="1.02" vaporized=""/>
    <tripinfo id="f1.8" depart="96.00" departLane="-E21_0" departPos="317.37" departSpeed="0.00" departDelay="0.00" arrival="264.00" arrivalLane="E11_0" arrivalPos="258.88" arrivalSpeed="16.93" duration="168.00" routeLength="2733.19" waitingTime="0.00" waitingCount="0" stopTime="0.00" timeLoss="16.16" rerouteNo="1" devices="tripinfo_f1.8 routing_f1.8" vType="Naive_passenger_vehicles" speedFactor="1.09" vaporized=""/>
    <tripinfo id="f6.10" depart="180.00" departLane="-E25_0" departPos="978.70" departSpeed="0.00" departDelay="0.00" arrival="267.00" arrivalLane="E26_0" arrivalPos="255.77" arrivalSpeed="14.87" duration="87.00" routeLength="1244.60" waitingTime="0.00" waitingCount="0" stopTime="0.00" timeLoss="6.89" rerouteNo="0" devices="tripinfo_f6.10 routing_f6.10" vType="Naive_passenger_vehicles" speedFactor="0.94" vaporized=""/>
    <tripinfo id="f7.1" depart="12.00" departLane="E5_0" departPos="389.65" departSpeed="0.00" departDelay="0.00" arrival="268.00" arrivalLane="E30_1" arrivalPos="307.80" arrivalSpeed="14.55" duration="256.00" routeLength="3708.92" waitingTime="0.00" waitingCount="0" stopTime="0.00" timeLoss="18.34" rerouteNo="1" devices="tripinfo_f7.1 routing_f7.1" vType="Naive_passenger_vehicles" speedFactor="0.94" vaporized=""/>
    <tripinfo id="f5.5" depart="180.00" departLane="E15_0" departPos="571.47" departSpeed="0.00" departDelay="0.00" arrival="269.00" arrivalLane="-E18_0" arrivalPos="87.42" arrivalSpeed="18.86" duration="89.00" routeLength="1518.45" waitingTime="0.00" waitingCount="0" stopTime="0.00" timeLoss="9.77" rerouteNo="1" devices="tripinfo_f5.5 routing_f5.5" vType="Naive_passenger_vehicles" speedFactor="1.16" vaporized=""/>
    <tripinfo id="f8.3" depart="108.00" departLane="E9_0" departPos="293.63" departSpeed="0.00" departDelay="0.00" arrival="270.00" arrivalLane="E13_0" arrivalPos="854.15" arrivalSpeed="15.66" duration="162.00" routeLength="2347.30" waitingTime="0.00" waitingCount="0" stopTime="0.00" timeLoss="21.30" rerouteNo="1" devices="tripinfo_f8.3 routing_f8.3" vType="Naive_passenger_vehicles" speedFactor="1.02" vaporized=""/>
    <tripinfo id="f6.12" depart="216.00" departLane="-E25_0" departPos="1887.60" departSpeed="0.00" departDelay="0.00" arrival="276.00" arrivalLane="E26_0" arrivalPos="760.36" arrivalSpeed="14.53" duration="60.00" routeLength="840.29" waitingTime="0.00" waitingCount="0" stopTime="0.00" timeLoss="5.74" rerouteNo="0" devices="tripinfo_f6.12 routing_f6.12" vType="Naive_passenger_vehicles" speedFactor="0.94" vaporized=""/>
    <tripinfo id="f7.3" depart="36.00" departLane="E5_0" departPos="164.00" departSpeed="0.00" departDelay="0.00" arrival="279.00" arrivalLane="E30_1" arrivalPos="161.20" arrivalSpeed="16.24" duration="243.00" routeLength="3787.97" waitingTime="0.00" waitingCount="0" stopTime="0.00" timeLoss="17.47" rerouteNo="1" devices="tripinfo_f7.3 routing_f7.3" vType="Naive_passenger_vehicles" speedFactor="1.02" vaporized=""/>
    <tripinfo id="f10.2" depart="36.00" departLane="E32_0" departPos="415.98" departSpeed="0.00" departDelay="0.00" arrival="280.00" arrivalLane="E21_0" arrivalPos="374.32" arrivalSpeed="17.46" duration="244.00" routeLength="4132.64" waitingTime="0.00" waitingCount="0" stopTime="0.00" timeLoss="18.99" rerouteNo="1" devices="tripinfo_f10.2 routing_f10.2" vType="Naive_passenger_vehicles" speedFactor="1.10" vaporized=""/>
    <tripinfo id="f7.4" depart="48.00" departLane="E5_0" departPos="200.95" departSpeed="0.00" departDelay="0.00" arrival="280.00" arrivalLane="E30_1" arrivalPos="58.23" arrivalSpeed="16.63" duration="232.00" routeLength="3648.06" waitingTime="0.00" waitingCount="0" stopTime="0.00" timeLoss="19.58" rerouteNo="1" devices="tripinfo_f7.4 routing_f7.4" vType="Naive_passenger_vehicles" speedFactor="1.04" vaporized=""/>
    <tripinfo id="f12.2" depart="72.00" departLane="E20_0" departPos="615.18" departSpeed="0.00" departDelay="0.00" arrival="289.00" arrivalLane="E23_0" arrivalPos="360.68" arrivalSpeed="14.36" duration="217.00" routeLength="2935.49" waitingTime="0.00" waitingCount="0" stopTime="0.00" timeLoss="20.99" rerouteNo="1" devices="tripinfo_f12.2 routing_f12.2" vType="Naive_passenger_vehicles" speedFactor="0.91" vaporized=""/>
    <tripinfo id="f6.7" depart="126.00" departLane="-E25_0" departPos="15.05" departSpeed="0.00" departDelay="0.00" arrival="289.00" arrivalLane="E26_0" arrivalPos="463.12" arrivalSpeed="15.84" duration="163.00" routeLength="2415.60" waitingTime="0.00" waitingCount="0" stopTime="0.00" timeLoss="10.02" rerouteNo="0" devices="tripinfo_f6.7 routing_f6.7" vType="Naive_passenger_vehicles" speedFactor="0.95" vaporized=""/>
    <tripinfo id="f7.5" depart="61.00" departLane="E5_0" departPos="6.80" departSpeed="0.00" departDelay="1.00" arrival="291.00" arrivalLane="E30_1" arrivalPos="0.32" arrivalSpeed="9.41" duration="230.00" routeLength="3784.29" waitingTime="0.00" waitingCount="0" stopTime="0.00" timeLoss="20.83" rerouteNo="1" devices="tripinfo_f7.5 routing_f7.5" vType="Naive_passenger_vehicles" speedFactor="1.10" vaporized=""/>
    <tripinfo id="f12.1" depart="36.00" departLane="E20_0" departPos="684.21" departSpeed="0.00" departDelay="0.00" arrival="292.00" arrivalLane="E23_0" arrivalPos="643.25" arrivalSpeed="17.16" duration="256.00" routeLength="3149.02" waitingTime="41.00" waitingCount="2" stopTime="0.00" timeLoss="69.22" rerouteNo="1" devices="tripinfo_f12.1 routing_f12.1" vType="Naive_passenger_vehicles" speedFactor="1.03" vaporized=""/>
    <tripinfo id="f4.7" depart="126.00" departLane="-E13_0" departPos="622.19" departSpeed="0.00" departDelay="0.00" arrival="294.00" arrivalLane="E2_0" arrivalPos="515.89" arrivalSpeed="15.03" duration="168.00" routeLength="2485.93" waitingTime="0.00" waitingCount="0" stopTime="0.00" timeLoss="12.86" rerouteNo="1" devices="tripinfo_f4.7 routing_f4.7" vType="Naive_passenger_vehicles" speedFactor="0.97" vaporized=""/>
    <tripinfo id="f3.4" depart="72.00" departLane="-E11_0" departPos="145.09" departSpeed="0.00" departDelay="0.00" arrival="300.00" arrivalLane="-E5_0" arrivalPos="132.82" arrivalSpeed="16.00" duration="228.00" routeLength="2986.28" waitingTime="33.00" waitingCount="1" stopTime="0.00" timeLoss="51.74" rerouteNo="1" devices="tripinfo_f3.4 routing_f3.4" vType="Naive_passenger_vehicles" speedFactor="1.02" vaporized=""/>
    <tripinfo id="f7.2" depart="24.00" departLane="E5_0" departPos="105.36" departSpeed="0.00" departDelay="0.00" arrival="301.00" arrivalLane="E30_1" arrivalPos="215.06" arrivalSpeed="14.72" duration="277.00" routeLength="3900.47" waitingTime="0.00" waitingCount="0" stopTime="0.00" timeLoss="19.74" rerouteNo="1" devices="tripinfo_f7.2 routing_f7.2" vType="Naive_passenger_vehicles" speedFactor="0.92" vaporized=""/>
    <tripinfo id="f9.3" depart="108.00" departLane="E14_0" departPos="576.78" departSpeed="0.00" departDelay="0.00" arrival="303.00" arrivalLane="-E26_0" arrivalPos="539.69" arrivalSpeed="14.62" duration="195.00" routeLength="2561.46" waitingTime="4.00" waitingCount="1" stopTime="0.00" timeLoss="21.40" rerouteNo="1" devices="tripinfo_f9.3 routing_f9.3" vType="Naive_passenger_vehicles" speedFactor="0.89" vaporized=""/>
    <tripinfo id="f4.13" depart="234.00" departLane="-E13_0" departPos="1715.49" departSpeed="0.00" departDelay="0.00" arrival="305.00" arrivalLane="E2_0" arrivalPos="220.12" arrivalSpeed="17.67" duration="71.00" routeLength="1096.86" waitingTime="0.00" waitingCount="0" stopTime="0.00" timeLoss="9.50" rerouteNo="1" devices="tripinfo_f4.13 routing_f4.13" vType="Naive_passenger_vehicles" speedFactor="1.08" vaporized=""/>
    <tripinfo id="f6.15" depart="270.00" departLane="-E25_0" departPos="1549.49" departSpeed="0.00" departDelay="0.00" arrival="307.00" arrivalLane="E26_0" arrivalPos="126.45" arrivalSpeed="16.88" duration="37.00" routeLength="544.49" waitingTime="0.00" waitingCount="0" stopTime="0.00" timeLoss="5.44" rerouteNo="0" devices="tripinfo_f6.15 routing_f6.15" vType="Naive_passenger_vehicles" speedFactor="1.04" vaporized=""/>
    <tripinfo id="f1.9" depart="108.00" departLane="-E21_0" departPos="251.19" departSpeed="0.00" departDelay="0.00" arrival="309.00" arrivalLane="E11_0" arrivalPos="378.27" arrivalSpeed="15.07" duration="201.00" routeLength="2918.77" waitingTime="0.00" waitingCount="0" stopTime="0.00" timeLoss="19.14" rerouteNo="1" devices="tripinfo_f1.9 routing_f1.9" vType="Naive_passenger_vehicles" speedFactor="0.97" vaporized=""/>
    <tripinfo id="f4.10" depart="180.00" departLane="-E13_0" departPos="604.20" departSpeed="0.00" departDelay="0.00" arrival="310.00" arrivalLane="E2_0" arrivalPos="178.64" arrivalSpeed="18.05" duration="130.00" routeLength="2166.68" waitingTime="0.00" waitingCount="0" stopTime="0.00" timeLoss="12.12" rerouteNo="1" devices="tripinfo_f4.10 routing_f4.10" vType="Naive_passenger_vehicles" speedFactor="1.11" vaporized=""/>
    <tripinfo id="f7.6" depart="73.00" departLane="E5_0" departPos="332.18" departSpeed="0.00" departDelay="1.00" arrival="311.00" arrivalLane="E30_1" arrivalPos="219.77" arrivalSpeed="16.08" duration="238.00" routeLength="3678.36" waitingTime="0.00" waitingCount="0" stopTime="0.00" timeLoss="19.08" rerouteNo="1" devices="tripinfo_f7.6 routing_f7.6" vType="Naive_passenger_vehicles" speedFactor="1.02" vaporized=""/>
    <tripinfo id="f8.4" depart="144.00" departLane="E9_0" departPos="1.95" departSpeed="0.00" departDelay="0.00" arrival="311.00" arrivalLane="E13_0" arrivalPos="107.46" arrivalSpeed="16.65" duration="167.00" routeLength="1892.29" waitingTime="33.00" waitingCount="1" stopTime="0.00" timeLoss="51.83" rerouteNo="1" devices="tripinfo_f8.4 routing_f8.4" vType="Naive_passenger_vehicles" speedFactor="1.00" vaporized=""/>
    <tripinfo id="f11.3" depart="54.00" departLane="E32_0" departPos="97.69" departSpeed="0.00" departDelay="0.00" arrival="315.00" arrivalLane="-E20_1" arrivalPos="444.77" arrivalSpeed="18.63" duration="261.00" routeLength="4519.19" waitingTime="0.00" waitingCount="0" stopTime="0.00" timeLoss="27.06" rerouteNo="1" devices="tripinfo_f11.3 routing_f11.3" vType="Naive_passenger_vehicles" speedFactor="1.17" vaporized=""/>