<?xml version="1.0" encoding="UTF-8"?>

<!-- generated on 2024-11-20 01:31:14 by Eclipse SUMO GUI Version 1.21.0
<sumoConfiguration xmlns:xsi="http://www.w3.org/2001/XMLSchema-instance" xsi:noNamespaceSchemaLocation="http://sumo.dlr.de/xsd/sumoConfiguration.xsd">

    <input>
        <net-file value="D:\All Python\Pure-Python\P4\03-Advanced transportation\SUMO\Project\Project_KeivanJamali.net.xml"/>
        <route-files value="D:\All Python\Pure-Python\P4\03-Advanced transportation\SUMO\Project\Project_KeivanJamali.rou.xml"/>
    </input>

    <output>
        <tripinfo-output value="D:\All Python\Pure-Python\P4\03-Advanced transportation\SUMO\Project\TripInfor.xml"/>
        <edgedata-output value="D:\All Python\Pure-Python\P4\03-Advanced transportation\SUMO\Project\EdgeData.xml"/>
    </output>

</sumoConfiguration>
-->

<tripinfos xmlns:xsi="http://www.w3.org/2001/XMLSchema-instance" xsi:noNamespaceSchemaLocation="http://sumo.dlr.de/xsd/tripinfo_file.xsd">
    <tripinfo id="f1.3" depart="36.00" departLane="E17_0" departPos="557.88" departSpeed="0.00" departDelay="0.00" arrival="188.00" arrivalLane="E8_1" arrivalPos="9.05" arrivalSpeed="13.13" duration="152.00" routeLength="2133.93" waitingTime="0.00" waitingCount="0" stopTime="0.00" timeLoss="25.10" rerouteNo="1" devices="tripinfo_f1.3 routing_f1.3" vType="Naive_passenger_vehicles" speedFactor="1.03" vaporized=""/>
    <tripinfo id="f1.0" depart="0.00" departLane="E17_0" departPos="144.34" departSpeed="0.00" departDelay="0.00" arrival="193.00" arrivalLane="E8_0" arrivalPos="137.21" arrivalSpeed="15.57" duration="193.00" routeLength="2670.47" waitingTime="0.00" waitingCount="0" stopTime="0.00" timeLoss="32.25" rerouteNo="1" devices="tripinfo_f1.0 routing_f1.0" vType="Naive_passenger_vehicles" speedFactor="1.01" vaporized=""/>
    <tripinfo id="f1.2" depart="24.00" departLane="E17_0" departPos="369.44" departSpeed="0.00" departDelay="0.00" arrival="208.00" arrivalLane="E8_0" arrivalPos="85.73" arrivalSpeed="14.70" duration="184.00" routeLength="2393.89" waitingTime="0.00" waitingCount="0" stopTime="0.00" timeLoss="28.97" rerouteNo="1" devices="tripinfo_f1.2 routing_f1.2" vType="Naive_passenger_vehicles" speedFactor="0.94" vaporized=""/>
    <tripinfo id="f1.4" depart="48.00" departLane="E17_0" departPos="562.52" departSpeed="0.00" departDelay="0.00" arrival="212.00" arrivalLane="E8_1" arrivalPos="114.85" arrivalSpeed="16.33" duration="164.00" routeLength="2229.93" waitingTime="0.00" waitingCount="0" stopTime="0.00" timeLoss="27.58" rerouteNo="1" devices="tripinfo_f1.4 routing_f1.4" vType="Naive_passenger_vehicles" speedFactor="0.99" vaporized=""/>
    <tripinfo id="f1.1" depart="12.00" departLane="E17_0" departPos="330.25" departSpeed="0.00" departDelay="0.00" arrival="215.00" arrivalLane="E8_0" arrivalPos="126.23" arrivalSpeed="13.51" duration="203.00" routeLength="2473.58" waitingTime="0.00" waitingCount="0" stopTime="0.00" timeLoss="22.49" rerouteNo="1" devices="tripinfo_f1.1 routing_f1.1" vType="Naive_passenger_vehicles" speedFactor="0.83" vaporized=""/>
    <tripinfo id="f0.1" depart="9.00" departLane="E1_0" departPos="190.59" departSpeed="0.00" departDelay="0.00" arrival="223.00" arrivalLane="E35_0" arrivalPos="3.44" arrivalSpeed="16.32" duration="214.00" routeLength="3422.11" waitingTime="0.00" waitingCount="0" stopTime="0.00" timeLoss="13.07" rerouteNo="1" devices="tripinfo_f0.1 routing_f0.1" vType="Naive_passenger_vehicles" speedFactor="1.03" vaporized=""/>
    <tripinfo id="f0.2" depart="18.00" departLane="E1_0" departPos="193.60" departSpeed="0.00" departDelay="0.00" arrival="230.00" arrivalLane="E35_0" arrivalPos="34.36" arrivalSpeed="17.12" duration="212.00" routeLength="3444.86" waitingTime="0.00" waitingCount="0" stopTime="0.00" timeLoss="13.69" rerouteNo="1" devices="tripinfo_f0.2 routing_f0.2" vType="Naive_passenger_vehicles" speedFactor="1.05" vaporized=""/>
    <tripinfo id="f1.5" depart="60.00" departLane="E17_0" departPos="417.31" departSpeed="0.00" departDelay="0.00" arrival="243.00" arrivalLane="E8_1" arrivalPos="186.54" arrivalSpeed="15.36" duration="183.00" routeLength="2446.83" waitingTime="0.00" waitingCount="0" stopTime="0.00" timeLoss="25.77" rerouteNo="1" devices="tripinfo_f1.5 routing_f1.5" vType="Naive_passenger_vehicles" speedFactor="0.94" vaporized=""/>
    <tripinfo id="f1.6" depart="72.00" departLane="E17_0" departPos="374.20" departSpeed="0.00" departDelay="0.00" arrival="243.00" arrivalLane="E8_0" arrivalPos="161.96" arrivalSpeed="15.77" duration="171.00" routeLength="2465.35" waitingTime="0.00" waitingCount="0" stopTime="0.00" timeLoss="23.87" rerouteNo="1" devices="tripinfo_f1.6 routing_f1.6" vType="Naive_passenger_vehicles" speedFactor="1.02" vaporized=""/>
    <tripinfo id="f2.0" depart="0.00" departLane="E10_0" departPos="315.82" departSpeed="0.00" departDelay="0.00" arrival="245.00" arrivalLane="E1_0" arrivalPos="12.35" arrivalSpeed="11.15" duration="245.00" routeLength="3878.06" waitingTime="0.00" waitingCount="0" stopTime="0.00" timeLoss="25.75" rerouteNo="1" devices="tripinfo_f2.0 routing_f2.0" vType="Naive_passenger_vehicles" speedFactor="1.08" vaporized=""/>
    <tripinfo id="f1.7" depart="84.00" departLane="E17_0" departPos="578.69" departSpeed="0.00" departDelay="0.00" arrival="251.00" arrivalLane="E8_0" arrivalPos="49.97" arrivalSpeed="13.64" duration="167.00" routeLength="2148.88" waitingTime="0.00" waitingCount="0" stopTime="0.00" timeLoss="20.46" rerouteNo="1" devices="tripinfo_f1.7 routing_f1.7" vType="Naive_passenger_vehicles" speedFactor="0.89" vaporized=""/>
    <tripinfo id="f0.0" depart="0.00" departLane="E1_0" departPos="210.49" departSpeed="0.00" departDelay="0.00" arrival="260.00" arrivalLane="E35_0" arrivalPos="406.23" arrivalSpeed="14.46" duration="260.00" routeLength="3805.00" waitingTime="0.00" waitingCount="0" stopTime="0.00" timeLoss="15.77" rerouteNo="1" devices="tripinfo_f0.0 routing_f0.0" vType="Naive_passenger_vehicles" speedFactor="0.94" vaporized=""/>
    <tripinfo id="f0.5" depart="45.00" departLane="E1_0" departPos="36.64" departSpeed="0.00" departDelay="0.00" arrival="261.00" arrivalLane="E35_0" arrivalPos="188.90" arrivalSpeed="17.72" duration="216.00" routeLength="3761.52" waitingTime="0.00" waitingCount="0" stopTime="0.00" timeLoss="13.60" rerouteNo="1" devices="tripinfo_f0.5 routing_f0.5" vType="Naive_passenger_vehicles" speedFactor="1.12" vaporized=""/>
    <tripinfo id="f0.4" depart="36.00" departLane="E1_0" departPos="45.06" departSpeed="0.00" departDelay="0.00" arrival="264.00" arrivalLane="E35_0" arrivalPos="310.34" arrivalSpeed="17.08" duration="228.00" routeLength="3874.54" waitingTime="0.00" waitingCount="0" stopTime="0.00" timeLoss="13.36" rerouteNo="1" devices="tripinfo_f0.4 routing_f0.4" vType="Naive_passenger_vehicles" speedFactor="1.09" vaporized=""/>
    <tripinfo id="f1.8" depart="96.00" departLane="E17_0" departPos="421.00" departSpeed="0.00" departDelay="0.00" arrival="268.00" arrivalLane="E8_0" arrivalPos="22.34" arrivalSpeed="14.14" duration="172.00" routeLength="2278.94" waitingTime="0.00" waitingCount="0" stopTime="0.00" timeLoss="21.11" rerouteNo="1" devices="tripinfo_f1.8 routing_f1.8" vType="Naive_passenger_vehicles" speedFactor="0.92" vaporized=""/>
    <tripinfo id="f0.8" depart="72.00" departLane="E1_0" departPos="51.93" departSpeed="0.00" departDelay="0.00" arrival="280.00" arrivalLane="E35_0" arrivalPos="175.48" arrivalSpeed="18.07" duration="208.00" routeLength="3732.82" waitingTime="0.00" waitingCount="0" stopTime="0.00" timeLoss="13.19" rerouteNo="1" devices="tripinfo_f0.8 routing_f0.8" vType="Naive_passenger_vehicles" speedFactor="1.16" vaporized=""/>
    <tripinfo id="f1.9" depart="108.00" departLane="E17_0" departPos="243.30" departSpeed="0.00" departDelay="0.00" arrival="295.00" arrivalLane="E8_0" arrivalPos="108.82" arrivalSpeed="15.19" duration="187.00" routeLength="2543.12" waitingTime="0.00" waitingCount="0" stopTime="0.00" timeLoss="21.31" rerouteNo="1" devices="tripinfo_f1.9 routing_f1.9" vType="Naive_passenger_vehicles" speedFactor="0.93" vaporized=""/>
    <tripinfo id="f1.11" depart="132.00" departLane="E17_0" departPos="407.94" departSpeed="0.00" departDelay="0.00" arrival="296.00" arrivalLane="E8_1" arrivalPos="95.73" arrivalSpeed="16.07" duration="164.00" routeLength="2365.39" waitingTime="0.00" waitingCount="0" stopTime="0.00" timeLoss="24.00" rerouteNo="1" devices="tripinfo_f1.11 routing_f1.11" vType="Naive_passenger_vehicles" speedFactor="1.02" vaporized=""/>
    <tripinfo id="f1.10" depart="120.00" departLane="E17_0" departPos="287.33" departSpeed="0.00" departDelay="0.00" arrival="303.00" arrivalLane="E8_0" arrivalPos="258.23" arrivalSpeed="15.99" duration="183.00" routeLength="2648.50" waitingTime="0.00" waitingCount="0" stopTime="0.00" timeLoss="23.47" rerouteNo="1" devices="tripinfo_f1.10 routing_f1.10" vType="Naive_passenger_vehicles" speedFactor="1.01" vaporized=""/>
    <tripinfo id="f1.12" depart="144.00" departLane="E17_0" departPos="216.72" departSpeed="0.00" departDelay="0.00" arrival="306.00" arrivalLane="E8_1" arrivalPos="34.70" arrivalSpeed="17.15" duration="162.00" routeLength="2495.58" waitingTime="0.00" waitingCount="0" stopTime="0.00" timeLoss="24.87" rerouteNo="1" devices="tripinfo_f1.12 routing_f1.12" vType="Naive_passenger_vehicles" speedFactor="1.10" vaporized=""/>
    <tripinfo id="f0.6" depart="54.00" departLane="E1_0" departPos="68.36" departSpeed="0.00" departDelay="0.00" arrival="308.00" arrivalLane="E35_0" arrivalPos="127.22" arrivalSpeed="15.09" duration="254.00" routeLength="3668.12" waitingTime="0.00" waitingCount="0" stopTime="0.00" timeLoss="15.01" rerouteNo="1" devices="tripinfo_f0.6 routing_f0.6" vType="Naive_passenger_vehicles" speedFactor="0.93" vaporized=""/>
    <tripinfo id="f0.13" depart="117.00" departLane="E1_0" departPos="247.95" departSpeed="0.00" departDelay="0.00" arrival="309.00" arrivalLane="E35_0" arrivalPos="59.71" arrivalSpeed="18.89" duration="192.00" routeLength="3421.01" waitingTime="0.00" waitingCount="0" stopTime="0.00" timeLoss="12.91" rerouteNo="1" devices="tripinfo_f0.13 routing_f0.13" vType="Naive_passenger_vehicles" speedFactor="1.15" vaporized=""/>
    <tripinfo id="f0.3" depart="27.00" departLane="E1_0" departPos="251.38" departSpeed="0.00" departDelay="0.00" arrival="313.00" arrivalLane="E35_0" arrivalPos="469.98" arrivalSpeed="13.23" duration="286.00" routeLength="3827.86" waitingTime="0.00" waitingCount="0" stopTime="0.00" timeLoss="16.84" rerouteNo="1" devices="tripinfo_f0.3 routing_f0.3" vType="Naive_passenger_vehicles" speedFactor="0.86" vaporized=""/>
    <tripinfo id="f0.9" depart="82.00" departLane="E1_0" departPos="262.84" departSpeed="0.00" departDelay="1.00" arrival="313.00" arrivalLane="E35_0" arrivalPos="158.98" arrivalSpeed="15.54" duration="231.00" routeLength="3505.40" waitingTime="0.00" waitingCount="0" stopTime="0.00" timeLoss="14.03" rerouteNo="1" devices="tripinfo_f0.9 routing_f0.9" vType="Naive_passenger_vehicles" speedFactor="0.97" vaporized=""/>
    <tripinfo id="f2.2" depart="36.00" departLane="E10_0" departPos="17.27" departSpeed="0.00" departDelay="0.00" arrival="318.00" arrivalLane="E1_1" arrivalPos="216.51" arrivalSpeed="16.79" duration="282.00" routeLength="4375.60" waitingTime="0.00" waitingCount="0" stopTime="0.00" timeLoss="27.96" rerouteNo="1" devices="tripinfo_f2.2 routing_f2.2" vType="Naive_passenger_vehicles" speedFactor="1.05" vaporized=""/>
    <tripinfo id="f0.7" depart="63.00" departLane="E1_0" departPos="264.81" departSpeed="0.00" departDelay="0.00" arrival="320.00" arrivalLane="E35_0" arrivalPos="394.32" arrivalSpeed="14.35" duration="257.00" routeLength="3738.77" waitingTime="0.00" waitingCount="0" stopTime="0.00" timeLoss="15.83" rerouteNo="1" devices="tripinfo_f0.7 routing_f0.7" vType="Naive_passenger_vehicles" speedFactor="0.94" vaporized=""/>
    <tripinfo id="f0.12" depart="110.00" departLane="E1_0" departPos="6.75" departSpeed="0.00" departDelay="2.00" arrival="328.00" arrivalLane="E35_0" arrivalPos="241.30" arrivalSpeed="18.77" duration="218.00" routeLength="3843.81" waitingTime="0.00" waitingCount="0" stopTime="0.00" timeLoss="13.04" rerouteNo="1" devices="tripinfo_f0.12 routing_f0.12" vType="Naive_passenger_vehicles" speedFactor="1.13" vaporized=""/>
    <tripinfo id="f0.16" depart="144.00" departLane="E1_0" departPos="249.78" departSpeed="0.00" departDelay="0.00" arrival="337.00" arrivalLane="E35_0" arrivalPos="160.33" arrivalSpeed="19.04" duration="193.00" routeLength="3514.65" waitingTime="0.00" waitingCount="0" stopTime="0.00" timeLoss="12.86" rerouteNo="1" devices="tripinfo_f0.16 routing_f0.16" vType="Naive_passenger_vehicles" speedFactor="1.18" vaporized=""/>
    <tripinfo id="f0.14" depart="126.00" departLane="E1_0" departPos="162.46" departSpeed="0.00" departDelay="0.00" arrival="338.00" arrivalLane="E35_0" arrivalPos="405.23" arrivalSpeed="18.68" duration="212.00" routeLength="3846.87" waitingTime="0.00" waitingCount="0" stopTime="0.00" timeLoss="14.39" rerouteNo="1" devices="tripinfo_f0.14 routing_f0.14" vType="Naive_passenger_vehicles" speedFactor="1.17" vaporized=""/>
    <tripinfo id="f1.14" depart="168.00" departLane="E17_0" departPos="345.65" departSpeed="0.00" departDelay="0.00" arrival="339.00" arrivalLane="E8_0" arrivalPos="190.09" arrivalSpeed="17.23" duration="171.00" routeLength="2522.04" waitingTime="0.00" waitingCount="0" stopTime="0.00" timeLoss="24.80" rerouteNo="1" devices="tripinfo_f1.14 routing_f1.14" vType="Naive_passenger_vehicles" speedFactor="1.04" vaporized=""/>
    <tripinfo id="f2.1" depart="18.00" departLane="E10_0" departPos="26.76" departSpeed="0.00" departDelay="0.00" arrival="340.00" arrivalLane="E1_0" arrivalPos="91.18" arrivalSpeed="14.02" duration="322.00" routeLength="4245.95" waitingTime="0.00" waitingCount="0" stopTime="0.00" timeLoss="29.36" rerouteNo="1" devices="tripinfo_f2.1 routing_f2.1" vType="Naive_passenger_vehicles" speedFactor="0.89" vaporized=""/>
    <tripinfo id="f2.3" depart="54.00" departLane="E10_0" departPos="470.14" departSpeed="0.00" departDelay="0.00" arrival="349.00" arrivalLane="E1_0" arrivalPos="161.88" arrivalSpeed="13.73" duration="295.00" routeLength="3873.27" waitingTime="0.00" waitingCount="0" stopTime="0.00" timeLoss="26.38" rerouteNo="1" devices="tripinfo_f2.3 routing_f2.3" vType="Naive_passenger_vehicles" speedFactor="0.88" vaporized=""/>
    <tripinfo id="f0.11" depart="99.00" departLane="E1_0" departPos="60.14" departSpeed="0.00" departDelay="0.00" arrival="352.00" arrivalLane="E35_0" arrivalPos="165.36" arrivalSpeed="14.91" duration="253.00" routeLength="3714.48" waitingTime="0.00" waitingCount="0" stopTime="0.00" timeLoss="16.20" rerouteNo="1" devices="tripinfo_f0.11 routing_f0.11" vType="Naive_passenger_vehicles" speedFactor="0.95" vaporized=""/>
    <tripinfo id="f2.6" depart="108.00" departLane="E10_0" departPos="211.51" departSpeed="0.00" departDelay="0.00" arrival="360.00" arrivalLane="E1_1" arrivalPos="233.79" arrivalSpeed="18.48" duration="252.00" routeLength="4198.65" waitingTime="0.00" waitingCount="0" stopTime="0.00" timeLoss="34.63" rerouteNo="1" devices="tripinfo_f2.6 routing_f2.6" vType="Naive_passenger_vehicles" speedFactor="1.18" vaporized=""/>
    <tripinfo id="f2.4" depart="72.00" departLane="E10_0" departPos="87.94" departSpeed="0.00" departDelay="0.00" arrival="361.00" arrivalLane="E1_0" arrivalPos="270.43" arrivalSpeed="15.80" duration="289.00" routeLength="4364.02" waitingTime="0.00" waitingCount="0" stopTime="0.00" timeLoss="25.63" rerouteNo="1" devices="tripinfo_f2.4 routing_f2.4" vType="Naive_passenger_vehicles" speedFactor="1.01" vaporized=""/>
    <tripinfo id="f1.13" depart="156.00" departLane="E17_0" departPos="89.56" departSpeed="0.00" departDelay="0.00" arrival="361.00" arrivalLane="E8_1" arrivalPos="236.06" arrivalSpeed="15.19" duration="205.00" routeLength="2824.10" waitingTime="0.00" waitingCount="0" stopTime="0.00" timeLoss="25.48" rerouteNo="1" devices="tripinfo_f1.13 routing_f1.13" vType="Naive_passenger_vehicles" speedFactor="0.96" vaporized=""/>
    <tripinfo id="f1.17" depart="204.00" departLane="E17_0" departPos="477.84" departSpeed="0.00" departDelay="0.00" arrival="363.00" arrivalLane="E8_0" arrivalPos="237.68" arrivalSpeed="18.24" duration="159.00" routeLength="2437.44" waitingTime="0.00" waitingCount="0" stopTime="0.00" timeLoss="23.73" rerouteNo="1" devices="tripinfo_f1.17 routing_f1.17" vType="Naive_passenger_vehicles" speedFactor="1.10" vaporized=""/>
    <tripinfo id="f0.19" depart="171.00" departLane="E1_0" departPos="242.58" departSpeed="0.00" departDelay="0.00" arrival="374.00" arrivalLane="E35_0" arrivalPos="58.65" arrivalSpeed="17.50" duration="203.00" routeLength="3425.34" waitingTime="0.00" waitingCount="0" stopTime="0.00" timeLoss="13.09" rerouteNo="1" devices="tripinfo_f0.19 routing_f0.19" vType="Naive_passenger_vehicles" speedFactor="1.09" vaporized=""/>
    <tripinfo id="f1.15" depart="180.00" departLane="E17_0" departPos="281.51" departSpeed="0.00" departDelay="0.00" arrival="376.00" arrivalLane="E8_0" arrivalPos="153.35" arrivalSpeed="14.66" duration="196.00" routeLength="2549.44" waitingTime="0.00" waitingCount="0" stopTime="0.00" timeLoss="24.06" rerouteNo="1" devices="tripinfo_f1.15 routing_f1.15" vType="Naive_passenger_vehicles" speedFactor="0.90" vaporized=""/>
    <tripinfo id="f0.18" depart="162.00" departLane="E1_0" departPos="166.83" departSpeed="0.00" departDelay="0.00" arrival="377.00" arrivalLane="E35_1" arrivalPos="196.45" arrivalSpeed="17.17" duration="215.00" routeLength="3633.72" waitingTime="0.00" waitingCount="0" stopTime="0.00" timeLoss="13.45" rerouteNo="1" devices="tripinfo_f0.18 routing_f0.18" vType="Naive_passenger_vehicles" speedFactor="1.09" vaporized=""/>
    <tripinfo id="f0.15" depart="135.00" departLane="E1_0" departPos="187.43" departSpeed="0.00" departDelay="0.00" arrival="379.00" arrivalLane="E35_0" arrivalPos="265.88" arrivalSpeed="16.07" duration="244.00" routeLength="3687.71" waitingTime="0.00" waitingCount="0" stopTime="0.00" timeLoss="15.03" rerouteNo="1" devices="tripinfo_f0.15 routing_f0.15" vType="Naive_passenger_vehicles" speedFactor="0.97" vaporized=""/>
    <tripinfo id="f0.10" depart="90.00" departLane="E1_0" departPos="58.67" departSpeed="0.00" departDelay="0.00" arrival="381.00" arrivalLane="E35_0" arrivalPos="193.29" arrivalSpeed="12.99" duration="291.00" routeLength="3743.88" waitingTime="0.00" waitingCount="0" stopTime="0.00" timeLoss="17.24" rerouteNo="1" devices="tripinfo_f0.10 routing_f0.10" vType="Naive_passenger_vehicles" speedFactor="0.83" vaporized=""/>
    <tripinfo id="f0.17" depart="153.00" departLane="E1_0" departPos="191.25" departSpeed="0.00" departDelay="0.00" arrival="381.00" arrivalLane="E35_1" arrivalPos="222.74" arrivalSpeed="16.44" duration="228.00" routeLength="3640.74" waitingTime="0.00" waitingCount="0" stopTime="0.00" timeLoss="14.91" rerouteNo="1" devices="tripinfo_f0.17 routing_f0.17" vType="Naive_passenger_vehicles" speedFactor="1.03" vaporized=""/>
    <tripinfo id="f0.22" depart="198.00" departLane="E1_0" departPos="257.47" departSpeed="0.00" departDelay="0.00" arrival="412.00" arrivalLane="E35_0" arrivalPos="523.76" arrivalSpeed="18.26" duration="214.00" routeLength="3875.55" waitingTime="0.00" waitingCount="0" stopTime="0.00" timeLoss="14.32" rerouteNo="1" devices="tripinfo_f0.22 routing_f0.22" vType="Naive_passenger_vehicles" speedFactor="1.17" vaporized=""/>
    <tripinfo id="f1.16" depart="192.00" departLane="E17_0" departPos="0.50" departSpeed="0.00" departDelay="0.00" arrival="413.00" arrivalLane="E8_0" arrivalPos="94.61" arrivalSpeed="13.38" duration="221.00" routeLength="2771.71" waitingTime="0.00" waitingCount="0" stopTime="0.00" timeLoss="24.77" rerouteNo="1" devices="tripinfo_f1.16 routing_f1.16" vType="Naive_passenger_vehicles" speedFactor="0.85" vaporized=""/>
    <tripinfo id="f2.5" depart="90.00" departLane="E10_0" departPos="104.64" departSpeed="0.00" departDelay="0.00" arrival="414.00" arrivalLane="E1_1" arrivalPos="160.62" arrivalSpeed="14.12" duration="324.00" routeLength="4232.35" waitingTime="0.00" waitingCount="0" stopTime="0.00" timeLoss="27.16" rerouteNo="1" devices="tripinfo_f2.5 routing_f2.5" vType="Naive_passenger_vehicles" speedFactor="0.87" vaporized=""/>
    <tripinfo id="f2.7" depart="127.00" departLane="E10_0" departPos="171.63" departSpeed="0.00" departDelay="1.00" arrival="416.00" arrivalLane="E1_1" arrivalPos="247.47" arrivalSpeed="16.25" duration="289.00" routeLength="4257.37" waitingTime="0.00" waitingCount="0" stopTime="0.00" timeLoss="26.74" rerouteNo="1" devices="tripinfo_f2.7 routing_f2.7" vType="Naive_passenger_vehicles" speedFactor="0.99" vaporized=""/>
    <tripinfo id="f1.19" depart="228.00" departLane="E17_0" departPos="56.98" departSpeed="0.00" departDelay="0.00" arrival="422.00" arrivalLane="E8_0" arrivalPos="32.01" arrivalSpeed="15.05" duration="194.00" routeLength="2652.63" waitingTime="0.00" waitingCount="0" stopTime="0.00" timeLoss="28.18" rerouteNo="1" devices="tripinfo_f1.19 routing_f1.19" vType="Naive_passenger_vehicles" speedFactor="0.97" vaporized=""/>
    <tripinfo id="EV0_0" depart="300.00" departLane="E1_0" departPos="6.60" departSpeed="0.00" departDelay="0.00" arrival="423.00" arrivalLane="-E23_0" arrivalPos="871.94" arrivalSpeed="24.69" duration="123.00" routeLength="2663.38" waitingTime="0.00" waitingCount="0" stopTime="0.00" timeLoss="19.54" rerouteNo="0" devices="tripinfo_EV0_0" vType="Emergency_vehicles" speedFactor="1.56" vaporized=""/>
    <tripinfo id="f1.18" depart="216.00" departLane="E17_0" departPos="260.42" departSpeed="0.00" departDelay="0.00" arrival="423.00" arrivalLane="E8_1" arrivalPos="235.55" arrivalSpeed="14.74" duration="207.00" routeLength="2652.74" waitingTime="0.00" waitingCount="0" stopTime="0.00" timeLoss="27.51" rerouteNo="1" devices="tripinfo_f1.18 routing_f1.18" vType="Naive_passenger_vehicles" speedFactor="0.90" vaporized=""/>
    <tripinfo id="f0.20" depart="180.00" departLane="E1_0" departPos="251.26" departSpeed="0.00" departDelay="0.00" arrival="426.00" arrivalLane="E35_0" arrivalPos="468.15" arrivalSpeed="15.37" duration="246.00" routeLength="3826.15" waitingTime="0.00" waitingCount="0" stopTime="0.00" timeLoss="14.50" rerouteNo="1" devices="tripinfo_f0.20 routing_f0.20" vType="Naive_passenger_vehicles" speedFactor="1.00" vaporized=""/>
    <tripinfo id="f1.22" depart="264.00" departLane="E17_0" departPos="250.94" departSpeed="0.00" departDelay="0.00" arrival="432.00" arrivalLane="E8_0" arrivalPos="23.75" arrivalSpeed="14.76" duration="168.00" routeLength="2450.41" waitingTime="0.00" waitingCount="0" stopTime="0.00" timeLoss="25.15" rerouteNo="1" devices="tripinfo_f1.22 routing_f1.22" vType="Naive_passenger_vehicles" speedFactor="1.04" vaporized=""/>
    <tripinfo id="f1.20" depart="240.00" departLane="E17_0" departPos="111.11" departSpeed="0.00" departDelay="0.00" arrival="434.00" arrivalLane="E8_1" arrivalPos="130.06" arrivalSpeed="15.85" duration="194.00" routeLength="2696.55" waitingTime="0.00" waitingCount="0" stopTime="0.00" timeLoss="33.15" rerouteNo="1" devices="tripinfo_f1.20 routing_f1.20" vType="Naive_passenger_vehicles" speedFactor="1.02" vaporized=""/>
    <tripinfo id="f1.21" depart="252.00" departLane="E17_0" departPos="437.15" departSpeed="0.00" departDelay="0.00" arrival="434.00" arrivalLane="E8_0" arrivalPos="112.61" arrivalSpeed="14.51" duration="182.00" routeLength="2353.06" waitingTime="0.00" waitingCount="0" stopTime="0.00" timeLoss="20.08" rerouteNo="1" devices="tripinfo_f1.21 routing_f1.21" vType="Naive_passenger_vehicles" speedFactor="0.88" vaporized=""/>
    <tripinfo id="f2.9" depart="162.00" departLane="E10_0" departPos="160.60" departSpeed="0.00" departDelay="0.00" arrival="438.00" arrivalLane="E1_0" arrivalPos="122.02" arrivalSpeed="16.76" duration="276.00" routeLength="4142.95" waitingTime="0.00" waitingCount="0" stopTime="0.00" timeLoss="31.39" rerouteNo="1" devices="tripinfo_f2.9 routing_f2.9" vType="Naive_passenger_vehicles" speedFactor="1.04" vaporized=""/>
    <tripinfo id="f2.8" depart="144.00" departLane="E10_0" departPos="278.03" departSpeed="0.00" departDelay="0.00" arrival="439.00" arrivalLane="E1_0" arrivalPos="39.98" arrivalSpeed="13.96" duration="295.00" routeLength="3943.48" waitingTime="0.00" waitingCount="0" stopTime="0.00" timeLoss="26.75" rerouteNo="1" devices="tripinfo_f2.8 routing_f2.8" vType="Naive_passenger_vehicles" speedFactor="0.90" vaporized=""/>
    <tripinfo id="f0.26" depart="234.00" departLane="E1_0" departPos="90.86" departSpeed="0.00" departDelay="0.00" arrival="451.00" arrivalLane="E35_0" arrivalPos="129.85" arrivalSpeed="17.74" duration="217.00" routeLength="3643.09" waitingTime="0.00" waitingCount="0" stopTime="0.00" timeLoss="13.55" rerouteNo="1" devices="tripinfo_f0.26 routing_f0.26" vType="Naive_passenger_vehicles" speedFactor="1.08" vaporized=""/>
    <tripinfo id="f0.25" depart="226.00" departLane="E1_0" departPos="36.67" departSpeed="0.00" departDelay="1.00" arrival="456.00" arrivalLane="E35_0" arrivalPos="89.86" arrivalSpeed="16.47" duration="230.00" routeLength="3662.45" waitingTime="0.00" waitingCount="0" stopTime="0.00" timeLoss="14.09" rerouteNo="1" devices="tripinfo_f0.25 routing_f0.25" vType="Naive_passenger_vehicles" speedFactor="1.02" vaporized=""/>
    <tripinfo id="f0.21" depart="189.00" departLane="E1_0" departPos="225.98" departSpeed="0.00" departDelay="0.00" arrival="460.00" arrivalLane="E35_0" arrivalPos="197.18" arrivalSpeed="13.92" duration="271.00" routeLength="3580.46" waitingTime="0.00" waitingCount="0" stopTime="0.00" timeLoss="17.08" rerouteNo="1" devices="tripinfo_f0.21 routing_f0.21" vType="Naive_passenger_vehicles" speedFactor="0.85" vaporized=""/>
    <tripinfo id="f2.12" depart="219.00" departLane="E10_0" departPos="212.28" departSpeed="0.00" departDelay="3.00" arrival="464.00" arrivalLane="E1_1" arrivalPos="58.77" arrivalSpeed="16.81" duration="245.00" routeLength="4022.85" waitingTime="0.00" waitingCount="0" stopTime="0.00" timeLoss="29.57" rerouteNo="1" devices="tripinfo_f2.12 routing_f2.12" vType="Naive_passenger_vehicles" speedFactor="1.14" vaporized=""/>
    <tripinfo id="f0.23" depart="207.00" departLane="E1_0" departPos="138.04" departSpeed="0.00" departDelay="0.00" arrival="466.00" arrivalLane="E35_0" arrivalPos="568.30" arrivalSpeed="16.29" duration="259.00" routeLength="4039.51" waitingTime="0.00" waitingCount="0" stopTime="0.00" timeLoss="15.64" rerouteNo="1" devices="tripinfo_f0.23 routing_f0.23" vType="Naive_passenger_vehicles" speedFactor="1.00" vaporized=""/>
    <tripinfo id="f1.24" depart="290.00" departLane="E17_0" departPos="443.82" departSpeed="0.00" departDelay="2.00" arrival="470.00" arrivalLane="E8_0" arrivalPos="255.64" arrivalSpeed="14.99" duration="180.00" routeLength="2489.42" waitingTime="0.00" waitingCount="0" stopTime="0.00" timeLoss="22.88" rerouteNo="1" devices="tripinfo_f1.24 routing_f1.24" vType="Naive_passenger_vehicles" speedFactor="0.96" vaporized=""/>
    <tripinfo id="f2.11" depart="198.00" departLane="E10_0" departPos="238.55" departSpeed="0.00" departDelay="0.00" arrival="471.00" arrivalLane="E1_1" arrivalPos="137.75" arrivalSpeed="15.56" duration="273.00" routeLength="4080.73" waitingTime="0.00" waitingCount="0" stopTime="0.00" timeLoss="28.02" rerouteNo="1" devices="tripinfo_f2.11 routing_f2.11" vType="Naive_passenger_vehicles" speedFactor="1.02" vaporized=""/>
    <tripinfo id="f0.24" depart="216.00" departLane="E1_0" departPos="43.43" departSpeed="0.00" departDelay="0.00" arrival="474.00" arrivalLane="E35_0" arrivalPos="447.02" arrivalSpeed="16.21" duration="258.00" routeLength="4012.85" waitingTime="0.00" waitingCount="0" stopTime="0.00" timeLoss="14.72" rerouteNo="1" devices="tripinfo_f0.24 routing_f0.24" vType="Naive_passenger_vehicles" speedFactor="1.00" vaporized=""/>
    <tripinfo id="f1.27" depart="324.00" departLane="E17_0" departPos="517.75" departSpeed="0.00" departDelay="0.00" arrival="477.00" arrivalLane="E8_1" arrivalPos="222.38" arrivalSpeed="18.78" duration="153.00" routeLength="2382.23" waitingTime="0.00" waitingCount="0" stopTime="0.00" timeLoss="27.24" rerouteNo="1" devices="tripinfo_f1.27 routing_f1.27" vType="Naive_passenger_vehicles" speedFactor="1.15" vaporized=""/>
    <tripinfo id="f1.23" depart="276.00" departLane="E17_0" departPos="6.80" departSpeed="0.00" departDelay="0.00" arrival="481.00" arrivalLane="E8_0" arrivalPos="147.51" arrivalSpeed="15.50" duration="205.00" routeLength="2818.31" waitingTime="2.00" waitingCount="1" stopTime="0.00" timeLoss="30.00" rerouteNo="1" devices="tripinfo_f1.23 routing_f1.23" vType="Naive_passenger_vehicles" speedFactor="0.97" vaporized=""/>
    <tripinfo id="f2.10" depart="180.00" departLane="E10_0" departPos="523.23" departSpeed="0.00" departDelay="0.00" arrival="482.00" arrivalLane="E1_0" arrivalPos="277.81" arrivalSpeed="14.27" duration="302.00" routeLength="3936.11" waitingTime="0.00" waitingCount="0" stopTime="0.00" timeLoss="27.89" rerouteNo="1" devices="tripinfo_f2.10 routing_f2.10" vType="Naive_passenger_vehicles" speedFactor="0.88" vaporized=""/>
    <tripinfo id="f1.25" depart="300.00" departLane="E17_0" departPos="123.47" departSpeed="0.00" departDelay="0.00" arrival="482.00" arrivalLane="E8_0" arrivalPos="3.71" arrivalSpeed="11.27" duration="182.00" routeLength="2557.85" waitingTime="0.00" waitingCount="0" stopTime="0.00" timeLoss="28.02" rerouteNo="1" devices="tripinfo_f1.25 routing_f1.25" vType="Naive_passenger_vehicles" speedFactor="1.01" vaporized=""/>
    <tripinfo id="f1.28" depart="337.00" departLane="E17_0" departPos="521.15" departSpeed="0.00" departDelay="1.00" arrival="490.00" arrivalLane="E8_0" arrivalPos="67.43" arrivalSpeed="17.21" duration="153.00" routeLength="2223.88" waitingTime="0.00" waitingCount="0" stopTime="0.00" timeLoss="23.25" rerouteNo="1" devices="tripinfo_f1.28 routing_f1.28" vType="Naive_passenger_vehicles" speedFactor="1.04" vaporized=""/>