<?xml version="1.0" encoding="UTF-8"?>

<!-- generated on 2024-12-24 18:12:50 by Eclipse SUMO GUI Version 1.21.0
<sumoConfiguration xmlns:xsi="http://www.w3.org/2001/XMLSchema-instance" xsi:noNamespaceSchemaLocation="http://sumo.dlr.de/xsd/sumoConfiguration.xsd">

    <input>
        <net-file value="D:\All Python\Pure-Python\P4\03-Advanced transportation\SUMO\Project\Scenario advanced\Project_KeivanJamali.net.xml"/>
        <route-files value="D:\All Python\Pure-Python\P4\03-Advanced transportation\SUMO\Project\Scenario advanced\Project_KeivanJamali.rou.xml"/>
        <additional-files value="D:\All Python\Pure-Python\P4\03-Advanced transportation\SUMO\Project\Scenario advanced\Project_KeivanJamali.detectors.xml"/>
    </input>

    <output>
        <tripinfo-output value="D:\All Python\Pure-Python\P4\03-Advanced transportation\SUMO\Project\Scenario advanced\output/Project_KeivanJamali.tripinfo.xml"/>
        <edgedata-output value="D:\All Python\Pure-Python\P4\03-Advanced transportation\SUMO\Project\Scenario advanced\output/Project_KeivanJamali.edgedata.xml"/>
    </output>

    <time>
        <begin value="0"/>
        <end value="3600"/>
    </time>

</sumoConfiguration>
-->

<meandata xmlns:xsi="http://www.w3.org/2001/XMLSchema-instance" xsi:noNamespaceSchemaLocation="http://sumo.dlr.de/xsd/meandata_file.xsd">
</meandata>
