<?xml version="1.0" encoding="UTF-8"?>

<!-- generated on 2026-01-04 00:11:28 by Eclipse SUMO GUI Version 1.24.0
<sumoConfiguration xmlns:xsi="http://www.w3.org/2001/XMLSchema-instance" xsi:noNamespaceSchemaLocation="http://sumo.dlr.de/xsd/sumoConfiguration.xsd">

    <input>
        <net-file value="result.net.xml"/>
        <route-files value="routes.rou.xml"/>
        <junction-taz value="true"/>
    </input>

    <output>
        <tripinfo-output value="tripinfo.xml"/>
    </output>

    <time>
        <begin value="0"/>
        <end value="5398"/>
        <step-length value="1.0"/>
    </time>

    <processing>
        <time-to-teleport value="-1"/>
        <waiting-time-memory value="100"/>
    </processing>

    <routing>
        <device.rerouting.probability value="1.0"/>
        <device.rerouting.period value="60"/>
        <device.rerouting.adaptation-weight value="0.5"/>
        <device.rerouting.adaptation-interval value="1"/>
    </routing>

    <report>
        <no-warnings value="true"/>
    </report>

    <traci_server>
        <remote-port value="43339"/>
    </traci_server>

    <gui_only>
        <quit-on-end value="false"/>
        <start value="true"/>
    </gui_only>

</sumoConfiguration>
-->

<tripinfos xmlns:xsi="http://www.w3.org/2001/XMLSchema-instance" xsi:noNamespaceSchemaLocation="http://sumo.dlr.de/xsd/tripinfo_file.xsd">
    <tripinfo id="trip_38" depart="37.00" departLane="E5_4_0" departPos="5.10" departSpeed="0.00" departDelay="0.00" arrival="122.00" arrivalLane="E5_4_0" arrivalPos="2000.00" arrivalSpeed="26.13" duration="85.00" routeLength="1994.90" waitingTime="0.00" waitingCount="0" stopTime="0.00" timeLoss="8.58" rerouteNo="1" devices="tripinfo_trip_38 routing_trip_38" vType="car" speedFactor="1.18" vaporized=""/>
    <tripinfo id="trip_108" depart="98.00" departLane="E24_23_0" departPos="5.10" departSpeed="0.00" departDelay="0.00" arrival="193.00" arrivalLane="E24_23_0" arrivalPos="2000.00" arrivalSpeed="22.70" duration="95.00" routeLength="1994.90" waitingTime="0.00" waitingCount="0" stopTime="0.00" timeLoss="7.66" rerouteNo="1" devices="tripinfo_trip_108 routing_trip_108" vType="car" speedFactor="1.03" vaporized=""/>
    <tripinfo id="trip_111" depart="104.00" departLane="E6_8_0" departPos="5.10" departSpeed="0.00" departDelay="5.00" arrival="213.00" arrivalLane="E6_8_0" arrivalPos="2000.00" arrivalSpeed="4.69" duration="109.00" routeLength="1994.90" waitingTime="0.00" waitingCount="0" stopTime="0.00" timeLoss="12.19" rerouteNo="1" devices="tripinfo_trip_111 routing_trip_111" vType="car" speedFactor="0.93" vaporized=""/>
    <tripinfo id="trip_75" depart="66.00" departLane="E21_24_0" departPos="5.10" departSpeed="0.00" departDelay="0.00" arrival="217.00" arrivalLane="E21_24_0" arrivalPos="3000.00" arrivalSpeed="20.74" duration="151.00" routeLength="2994.90" waitingTime="0.00" waitingCount="0" stopTime="0.00" timeLoss="9.40" rerouteNo="1" devices="tripinfo_trip_75 routing_trip_75" vType="car" speedFactor="0.96" vaporized=""/>
    <tripinfo id="trip_99" depart="87.00" departLane="E10_9_0" departPos="5.10" departSpeed="0.00" departDelay="0.00" arrival="217.00" arrivalLane="E10_9_0" arrivalPos="3000.00" arrivalSpeed="24.69" duration="130.00" routeLength="2994.90" waitingTime="0.00" waitingCount="0" stopTime="0.00" timeLoss="8.98" rerouteNo="1" devices="tripinfo_trip_99 routing_trip_99" vType="car" speedFactor="1.12" vaporized=""/>
    <tripinfo id="trip_36" depart="36.00" departLane="E4_3_0" departPos="5.10" departSpeed="0.00" departDelay="0.00" arrival="223.00" arrivalLane="E4_3_0" arrivalPos="4000.00" arrivalSpeed="21.87" duration="187.00" routeLength="3994.90" waitingTime="0.00" waitingCount="0" stopTime="0.00" timeLoss="10.05" rerouteNo="1" devices="tripinfo_trip_36 routing_trip_36" vType="car" speedFactor="1.02" vaporized=""/>
    <tripinfo id="trip_14" depart="15.00" departLane="E10_11_0" departPos="5.10" departSpeed="0.00" departDelay="0.00" arrival="227.00" arrivalLane="E10_11_0" arrivalPos="5000.00" arrivalSpeed="24.19" duration="212.00" routeLength="4994.90" waitingTime="0.00" waitingCount="0" stopTime="0.00" timeLoss="11.32" rerouteNo="1" devices="tripinfo_trip_14 routing_trip_14" vType="car" speedFactor="1.12" vaporized=""/>
    <tripinfo id="trip_143" depart="137.00" departLane="E17_16_0" departPos="5.10" departSpeed="0.00" departDelay="0.00" arrival="242.00" arrivalLane="E17_16_0" arrivalPos="2000.00" arrivalSpeed="19.65" duration="105.00" routeLength="1994.90" waitingTime="0.00" waitingCount="0" stopTime="0.00" timeLoss="8.21" rerouteNo="1" devices="tripinfo_trip_143 routing_trip_143" vType="car" speedFactor="0.94" vaporized=""/>
    <tripinfo id="trip_164" depart="156.00" departLane="E5_4_0" departPos="5.10" departSpeed="0.00" departDelay="2.00" arrival="245.00" arrivalLane="E5_4_0" arrivalPos="2000.00" arrivalSpeed="24.74" duration="89.00" routeLength="1994.90" waitingTime="0.00" waitingCount="0" stopTime="0.00" timeLoss="8.80" rerouteNo="1" devices="tripinfo_trip_164 routing_trip_164" vType="car" speedFactor="1.13" vaporized=""/>
    <tripinfo id="trip_11" depart="11.00" departLane="E7_18_0" departPos="5.10" departSpeed="0.00" departDelay="0.00" arrival="248.00" arrivalLane="E18_16_0" arrivalPos="3000.00" arrivalSpeed="6.26" duration="237.00" routeLength="5005.08" waitingTime="8.00" waitingCount="1" stopTime="0.00" timeLoss="29.05" rerouteNo="1" devices="tripinfo_trip_11 routing_trip_11" vType="car" speedFactor="1.09" vaporized=""/>
    <tripinfo id="trip_180" depart="168.00" departLane="E18_7_0" departPos="5.10" departSpeed="0.00" departDelay="0.00" arrival="260.00" arrivalLane="E18_7_0" arrivalPos="2000.00" arrivalSpeed="22.52" duration="92.00" routeLength="1994.90" waitingTime="0.00" waitingCount="0" stopTime="0.00" timeLoss="7.43" rerouteNo="1" devices="tripinfo_trip_180 routing_trip_180" vType="car" speedFactor="1.06" vaporized=""/>
    <tripinfo id="trip_130" depart="121.00" departLane="E21_24_0" departPos="5.10" departSpeed="0.00" departDelay="0.00" arrival="264.00" arrivalLane="E21_24_0" arrivalPos="3000.00" arrivalSpeed="22.22" duration="143.00" routeLength="2994.90" waitingTime="0.00" waitingCount="0" stopTime="0.00" timeLoss="8.82" rerouteNo="1" devices="tripinfo_trip_130 routing_trip_130" vType="car" speedFactor="1.01" vaporized=""/>
    <tripinfo id="trip_176" depart="166.00" departLane="E16_17_0" departPos="5.10" departSpeed="0.00" departDelay="0.00" arrival="272.00" arrivalLane="E16_17_0" arrivalPos="2000.00" arrivalSpeed="20.43" duration="106.00" routeLength="1994.90" waitingTime="0.00" waitingCount="0" stopTime="0.00" timeLoss="8.15" rerouteNo="1" devices="tripinfo_trip_176 routing_trip_176" vType="car" speedFactor="0.92" vaporized=""/>
    <tripinfo id="trip_19" depart="18.00" departLane="E21_24_0" departPos="5.10" departSpeed="0.00" departDelay="0.00" arrival="276.00" arrivalLane="E24_23_0" arrivalPos="2000.00" arrivalSpeed="20.40" duration="258.00" routeLength="5003.93" waitingTime="0.00" waitingCount="0" stopTime="0.00" timeLoss="16.70" rerouteNo="1" devices="tripinfo_trip_19 routing_trip_19" vType="car" speedFactor="0.94" vaporized=""/>
    <tripinfo id="trip_28" depart="27.00" departLane="E15_14_0" departPos="5.10" departSpeed="0.00" departDelay="0.00" arrival="276.00" arrivalLane="E15_14_0" arrivalPos="5000.00" arrivalSpeed="20.20" duration="249.00" routeLength="4994.90" waitingTime="0.00" waitingCount="0" stopTime="0.00" timeLoss="11.84" rerouteNo="1" devices="tripinfo_trip_28 routing_trip_28" vType="car" speedFactor="0.95" vaporized=""/>
    <tripinfo id="trip_80" depart="70.00" departLane="E1_3_0" departPos="5.10" departSpeed="0.00" departDelay="0.00" arrival="283.00" arrivalLane="E1_3_0" arrivalPos="4000.00" arrivalSpeed="4.64" duration="213.00" routeLength="3994.90" waitingTime="6.00" waitingCount="1" stopTime="0.00" timeLoss="47.58" rerouteNo="1" devices="tripinfo_trip_80 routing_trip_80" vType="car" speedFactor="1.09" vaporized=""/>
    <tripinfo id="trip_135" depart="127.00" departLane="E4_3_0" departPos="5.10" departSpeed="0.00" departDelay="0.00" arrival="285.00" arrivalLane="E4_3_0" arrivalPos="4000.00" arrivalSpeed="26.73" duration="158.00" routeLength="3994.90" waitingTime="0.00" waitingCount="0" stopTime="0.00" timeLoss="10.88" rerouteNo="1" devices="tripinfo_trip_135 routing_trip_135" vType="car" speedFactor="1.23" vaporized=""/>
    <tripinfo id="trip_151" depart="143.00" departLane="E22_15_0" departPos="5.10" departSpeed="0.00" departDelay="2.00" arrival="293.00" arrivalLane="E22_15_0" arrivalPos="3000.00" arrivalSpeed="20.70" duration="150.00" routeLength="2994.90" waitingTime="0.00" waitingCount="0" stopTime="0.00" timeLoss="9.79" rerouteNo="1" devices="tripinfo_trip_151 routing_trip_151" vType="car" speedFactor="0.96" vaporized=""/>
    <tripinfo id="trip_62" depart="56.00" departLane="E15_19_0" departPos="5.10" departSpeed="0.00" departDelay="0.00" arrival="297.00" arrivalLane="E19_17_0" arrivalPos="2000.00" arrivalSpeed="19.52" duration="241.00" routeLength="5009.09" waitingTime="0.00" waitingCount="0" stopTime="0.00" timeLoss="38.90" rerouteNo="1" devices="tripinfo_trip_62 routing_trip_62" vType="car" speedFactor="1.12" vaporized=""/>
    <tripinfo id="trip_45" depart="41.00" departLane="E15_22_0" departPos="5.10" departSpeed="0.00" departDelay="0.00" arrival="304.00" arrivalLane="E22_21_0" arrivalPos="2000.00" arrivalSpeed="22.18" duration="263.00" routeLength="5012.76" waitingTime="26.00" waitingCount="1" stopTime="0.00" timeLoss="46.78" rerouteNo="1" devices="tripinfo_trip_45 routing_trip_45" vType="car" speedFactor="1.04" vaporized=""/>
    <tripinfo id="trip_20" depart="19.00" departLane="E17_19_0" departPos="5.10" departSpeed="0.00" departDelay="0.00" arrival="306.00" arrivalLane="E19_20_0" arrivalPos="4000.00" arrivalSpeed="25.04" duration="287.00" routeLength="6009.30" waitingTime="32.00" waitingCount="1" stopTime="0.00" timeLoss="52.53" rerouteNo="1" devices="tripinfo_trip_20 routing_trip_20" vType="car" speedFactor="1.16" vaporized=""/>
    <tripinfo id="trip_76" depart="68.00" departLane="E17_19_0" departPos="5.10" departSpeed="0.00" departDelay="0.00" arrival="328.00" arrivalLane="E19_15_0" arrivalPos="3000.00" arrivalSpeed="6.01" duration="260.00" routeLength="5003.93" waitingTime="3.00" waitingCount="1" stopTime="0.00" timeLoss="30.63" rerouteNo="1" devices="tripinfo_trip_76 routing_trip_76" vType="car" speedFactor="0.98" vaporized=""/>
    <tripinfo id="trip_236" depart="227.00" departLane="E21_22_0" departPos="5.10" departSpeed="0.00" departDelay="0.00" arrival="329.00" arrivalLane="E21_22_0" arrivalPos="2000.00" arrivalSpeed="20.74" duration="102.00" routeLength="1994.90" waitingTime="0.00" waitingCount="0" stopTime="0.00" timeLoss="7.41" rerouteNo="1" devices="tripinfo_trip_236 routing_trip_236" vType="car" speedFactor="0.96" vaporized=""/>
    <tripinfo id="trip_227" depart="215.00" departLane="E21_24_0" departPos="5.10" departSpeed="0.00" departDelay="0.00" arrival="333.00" arrivalLane="E21_24_0" arrivalPos="3000.00" arrivalSpeed="26.43" duration="118.00" routeLength="2994.90" waitingTime="0.00" waitingCount="0" stopTime="0.00" timeLoss="9.01" rerouteNo="1" devices="tripinfo_trip_227 routing_trip_227" vType="car" speedFactor="1.24" vaporized=""/>
    <tripinfo id="trip_181" depart="168.00" departLane="E20_18_0" departPos="5.10" departSpeed="0.00" departDelay="0.00" arrival="341.00" arrivalLane="E20_18_0" arrivalPos="4000.00" arrivalSpeed="23.48" duration="173.00" routeLength="3994.90" waitingTime="0.00" waitingCount="0" stopTime="0.00" timeLoss="9.41" rerouteNo="1" devices="tripinfo_trip_181 routing_trip_181" vType="car" speedFactor="1.10" vaporized=""/>
    <tripinfo id="trip_179" depart="168.00" departLane="E3_4_0" departPos="5.10" departSpeed="0.00" departDelay="0.00" arrival="345.00" arrivalLane="E3_4_0" arrivalPos="4000.00" arrivalSpeed="23.86" duration="177.00" routeLength="3994.90" waitingTime="0.00" waitingCount="0" stopTime="0.00" timeLoss="10.28" rerouteNo="1" devices="tripinfo_trip_179 routing_trip_179" vType="car" speedFactor="1.08" vaporized=""/>
    <tripinfo id="trip_101" depart="89.00" departLane="E17_16_0" departPos="5.10" departSpeed="0.00" departDelay="0.00" arrival="348.00" arrivalLane="E16_18_0" arrivalPos="3000.00" arrivalSpeed="22.95" duration="259.00" routeLength="5003.93" waitingTime="16.00" waitingCount="1" stopTime="0.00" timeLoss="46.09" rerouteNo="1" devices="tripinfo_trip_101 routing_trip_101" vType="car" speedFactor="1.06" vaporized=""/>
    <tripinfo id="trip_22" depart="20.00" departLane="E3_12_0" departPos="5.10" departSpeed="0.00" departDelay="0.00" arrival="350.00" arrivalLane="E12_13_0" arrivalPos="3000.00" arrivalSpeed="21.50" duration="330.00" routeLength="7009.30" waitingTime="0.00" waitingCount="0" stopTime="0.00" timeLoss="17.32" rerouteNo="1" devices="tripinfo_trip_22 routing_trip_22" vType="car" speedFactor="1.01" vaporized=""/>
    <tripinfo id="trip_88" depart="78.00" departLane="E7_8_0" departPos="5.10" departSpeed="0.00" departDelay="0.00" arrival="353.00" arrivalLane="E8_6_0" arrivalPos="2000.00" arrivalSpeed="4.65" duration="275.00" routeLength="5003.93" waitingTime="28.00" waitingCount="2" stopTime="0.00" timeLoss="57.85" rerouteNo="1" devices="tripinfo_trip_88 routing_trip_88" vType="car" speedFactor="1.04" vaporized=""/>
    <tripinfo id="trip_98" depart="86.00" departLane="E17_19_0" departPos="5.10" departSpeed="0.00" departDelay="0.00" arrival="353.00" arrivalLane="E19_15_0" arrivalPos="3000.00" arrivalSpeed="19.52" duration="267.00" routeLength="5003.93" waitingTime="0.00" waitingCount="0" stopTime="0.00" timeLoss="17.19" rerouteNo="1" devices="tripinfo_trip_98 routing_trip_98" vType="car" speedFactor="0.91" vaporized=""/>
    <tripinfo id="trip_106" depart="98.00" departLane="E23_24_0" departPos="5.10" departSpeed="0.00" departDelay="0.00" arrival="353.00" arrivalLane="E24_21_0" arrivalPos="3000.00" arrivalSpeed="4.90" duration="255.00" routeLength="5009.09" waitingTime="22.00" waitingCount="1" stopTime="0.00" timeLoss="44.16" rerouteNo="1" devices="tripinfo_trip_106 routing_trip_106" vType="car" speedFactor="1.07" vaporized=""/>
    <tripinfo id="trip_146" depart="139.00" departLane="E21_22_0" departPos="5.10" departSpeed="0.00" departDelay="0.00" arrival="353.00" arrivalLane="E22_15_0" arrivalPos="3000.00" arrivalSpeed="24.23" duration="214.00" routeLength="5012.76" waitingTime="0.00" waitingCount="0" stopTime="0.00" timeLoss="15.35" rerouteNo="1" devices="tripinfo_trip_146 routing_trip_146" vType="car" speedFactor="1.14" vaporized=""/>
    <tripinfo id="trip_4" depart="5.00" departLane="E18_7_0" departPos="5.10" departSpeed="0.00" departDelay="0.00" arrival="356.00" arrivalLane="E8_6_0" arrivalPos="2000.00" arrivalSpeed="7.96" duration="351.00" routeLength="7011.67" waitingTime="15.00" waitingCount="2" stopTime="0.00" timeLoss="57.94" rerouteNo="1" devices="tripinfo_trip_4 routing_trip_4" vType="car" speedFactor="1.08" vaporized=""/>
    <tripinfo id="trip_175" depart="164.00" departLane="E3_1_0" departPos="5.10" departSpeed="0.00" departDelay="0.00" arrival="364.00" arrivalLane="E3_1_0" arrivalPos="4000.00" arrivalSpeed="20.18" duration="200.00" routeLength="3994.90" waitingTime="0.00" waitingCount="0" stopTime="0.00" timeLoss="11.15" rerouteNo="1" devices="tripinfo_trip_175 routing_trip_175" vType="car" speedFactor="0.96" vaporized=""/>
    <tripinfo id="trip_138" depart="132.00" departLane="E20_22_0" departPos="5.10" departSpeed="0.00" departDelay="0.00" arrival="365.00" arrivalLane="E20_22_0" arrivalPos="5000.00" arrivalSpeed="21.52" duration="233.00" routeLength="4994.90" waitingTime="0.00" waitingCount="0" stopTime="0.00" timeLoss="11.29" rerouteNo="1" devices="tripinfo_trip_138 routing_trip_138" vType="car" speedFactor="1.02" vaporized=""/>
    <tripinfo id="trip_120" depart="108.00" departLane="E24_21_0" departPos="5.10" departSpeed="0.00" departDelay="0.00" arrival="372.00" arrivalLane="E21_22_0" arrivalPos="2000.00" arrivalSpeed="22.72" duration="264.00" routeLength="5009.10" waitingTime="33.00" waitingCount="1" stopTime="0.00" timeLoss="51.89" rerouteNo="1" devices="tripinfo_trip_120 routing_trip_120" vType="car" speedFactor="1.07" vaporized=""/>
    <tripinfo id="trip_49" depart="44.00" departLane="E22_15_0" departPos="5.10" departSpeed="0.00" departDelay="0.00" arrival="374.00" arrivalLane="E15_19_0" arrivalPos="3000.00" arrivalSpeed="18.48" duration="330.00" routeLength="6003.93" waitingTime="0.00" waitingCount="0" stopTime="0.00" timeLoss="19.98" rerouteNo="1" devices="tripinfo_trip_49 routing_trip_49" vType="car" speedFactor="0.88" vaporized=""/>
    <tripinfo id="trip_123" depart="114.00" departLane="E20_21_0" departPos="5.10" departSpeed="0.00" departDelay="0.00" arrival="389.00" arrivalLane="E20_21_0" arrivalPos="6000.00" arrivalSpeed="21.85" duration="275.00" routeLength="5994.90" waitingTime="0.00" waitingCount="0" stopTime="0.00" timeLoss="13.22" rerouteNo="1" devices="tripinfo_trip_123 routing_trip_123" vType="car" speedFactor="1.03" vaporized=""/>
    <tripinfo id="trip_232" depart="221.00" departLane="E20_19_0" departPos="5.10" departSpeed="0.00" departDelay="0.00" arrival="389.00" arrivalLane="E20_19_0" arrivalPos="4000.00" arrivalSpeed="24.87" duration="168.00" routeLength="3994.90" waitingTime="0.00" waitingCount="0" stopTime="0.00" timeLoss="9.74" rerouteNo="1" devices="tripinfo_trip_232 routing_trip_232" vType="car" speedFactor="1.14" vaporized=""/>
    <tripinfo id="trip_201" depart="190.00" departLane="E14_23_0" departPos="5.10" departSpeed="0.00" departDelay="0.00" arrival="391.00" arrivalLane="E14_23_0" arrivalPos="4000.00" arrivalSpeed="20.47" duration="201.00" routeLength="3994.90" waitingTime="0.00" waitingCount="0" stopTime="0.00" timeLoss="11.13" rerouteNo="1" devices="tripinfo_trip_201 routing_trip_201" vType="car" speedFactor="0.95" vaporized=""/>
    <tripinfo id="trip_18" depart="18.00" departLane="E17_16_0" departPos="5.10" departSpeed="0.00" departDelay="0.00" arrival="394.00" arrivalLane="E16_8_0" arrivalPos="5000.00" arrivalSpeed="19.99" duration="376.00" routeLength="7009.30" waitingTime="15.00" waitingCount="1" stopTime="0.00" timeLoss="40.06" rerouteNo="1" devices="tripinfo_trip_18 routing_trip_18" vType="car" speedFactor="0.94" vaporized=""/>
    <tripinfo id="trip_39" depart="37.00" departLane="E17_16_0" departPos="5.10" departSpeed="0.00" departDelay="0.00" arrival="395.00" arrivalLane="E16_8_0" arrivalPos="5000.00" arrivalSpeed="23.02" duration="358.00" routeLength="7009.30" waitingTime="12.00" waitingCount="1" stopTime="0.00" timeLoss="71.38" rerouteNo="1" devices="tripinfo_trip_39 routing_trip_39" vType="car" speedFactor="1.10" vaporized=""/>
    <tripinfo id="trip_156" depart="144.00" departLane="E4_11_0" departPos="5.10" departSpeed="0.00" departDelay="0.00" arrival="397.00" arrivalLane="E4_11_0" arrivalPos="6000.00" arrivalSpeed="23.74" duration="253.00" routeLength="5994.90" waitingTime="0.00" waitingCount="0" stopTime="0.00" timeLoss="12.17" rerouteNo="1" devices="tripinfo_trip_156 routing_trip_156" vType="car" speedFactor="1.12" vaporized=""/>
    <tripinfo id="trip_83" depart="73.00" departLane="E9_10_0" departPos="5.10" departSpeed="0.00" departDelay="0.00" arrival="403.00" arrivalLane="E10_16_0" arrivalPos="4000.00" arrivalSpeed="21.51" duration="330.00" routeLength="7016.26" waitingTime="0.00" waitingCount="0" stopTime="0.00" timeLoss="18.41" rerouteNo="1" devices="tripinfo_trip_83 routing_trip_83" vType="car" speedFactor="1.02" vaporized=""/>
    <tripinfo id="trip_321" depart="317.00" departLane="E18_7_0" departPos="5.10" departSpeed="0.00" departDelay="0.00" arrival="404.00" arrivalLane="E18_7_0" arrivalPos="2000.00" arrivalSpeed="25.46" duration="87.00" routeLength="1994.90" waitingTime="0.00" waitingCount="0" stopTime="0.00" timeLoss="8.70" rerouteNo="1" devices="tripinfo_trip_321 routing_trip_321" vType="car" speedFactor="1.16" vaporized=""/>
    <tripinfo id="trip_200" depart="187.00" departLane="E4_3_0" departPos="5.10" departSpeed="0.00" departDelay="0.00" arrival="416.00" arrivalLane="E4_3_0" arrivalPos="4000.00" arrivalSpeed="17.46" duration="229.00" routeLength="3994.90" waitingTime="0.00" waitingCount="0" stopTime="0.00" timeLoss="11.70" rerouteNo="1" devices="tripinfo_trip_200 routing_trip_200" vType="car" speedFactor="0.83" vaporized=""/>
    <tripinfo id="trip_94" depart="84.00" departLane="E17_16_0" departPos="5.10" departSpeed="0.00" departDelay="0.00" arrival="417.00" arrivalLane="E16_10_0" arrivalPos="4000.00" arrivalSpeed="20.47" duration="333.00" routeLength="6009.10" waitingTime="18.00" waitingCount="1" stopTime="0.00" timeLoss="38.24" rerouteNo="1" devices="tripinfo_trip_94 routing_trip_94" vType="car" speedFactor="0.92" vaporized=""/>
    <tripinfo id="trip_171" depart="157.00" departLane="E10_15_0" departPos="5.10" departSpeed="0.00" departDelay="0.00" arrival="424.00" arrivalLane="E10_15_0" arrivalPos="6000.00" arrivalSpeed="18.54" duration="267.00" routeLength="5994.90" waitingTime="0.00" waitingCount="0" stopTime="0.00" timeLoss="18.09" rerouteNo="1" devices="tripinfo_trip_171 routing_trip_171" vType="car" speedFactor="1.09" vaporized=""/>
    <tripinfo id="trip_6" depart="7.00" departLane="E15_19_0" departPos="5.10" departSpeed="0.00" departDelay="0.00" arrival="425.00" arrivalLane="E17_16_0" arrivalPos="2000.00" arrivalSpeed="7.50" duration="418.00" routeLength="7024.55" waitingTime="10.00" waitingCount="1" stopTime="0.00" timeLoss="36.34" rerouteNo="1" devices="tripinfo_trip_6 routing_trip_6" vType="car" speedFactor="0.83" vaporized=""/>
    <tripinfo id="trip_157" depart="146.00" departLane="E8_6_0" departPos="5.10" departSpeed="0.00" departDelay="1.00" arrival="425.00" arrivalLane="E6_5_0" arrivalPos="4000.00" arrivalSpeed="7.93" duration="279.00" routeLength="6009.10" waitingTime="0.00" waitingCount="0" stopTime="0.00" timeLoss="48.50" rerouteNo="1" devices="tripinfo_trip_157 routing_trip_157" vType="car" speedFactor="1.18" vaporized=""/>
    <tripinfo id="trip_42" depart="38.00" departLane="E12_3_0" departPos="5.10" departSpeed="0.00" departDelay="0.00" arrival="431.00" arrivalLane="E3_1_0" arrivalPos="4000.00" arrivalSpeed="20.76" duration="393.00" routeLength="8009.30" waitingTime="0.00" waitingCount="0" stopTime="0.00" timeLoss="16.15" rerouteNo="1" devices="tripinfo_trip_42 routing_trip_42" vType="car" speedFactor="0.96" vaporized=""/>
    <tripinfo id="trip_118" depart="106.00" departLane="E13_24_0" departPos="5.10" departSpeed="0.00" departDelay="0.00" arrival="435.00" arrivalLane="E24_21_0" arrivalPos="3000.00" arrivalSpeed="21.94" duration="329.00" routeLength="7009.30" waitingTime="0.00" waitingCount="0" stopTime="0.00" timeLoss="14.45" rerouteNo="1" devices="tripinfo_trip_118 routing_trip_118" vType="car" speedFactor="1.00" vaporized=""/>
    <tripinfo id="trip_9" depart="10.00" departLane="E16_17_0" departPos="5.10" departSpeed="0.00" departDelay="0.00" arrival="436.00" arrivalLane="E19_15_0" arrivalPos="3000.00" arrivalSpeed="20.16" duration="426.00" routeLength="7019.39" waitingTime="30.00" waitingCount="2" stopTime="0.00" timeLoss="87.75" rerouteNo="1" devices="tripinfo_trip_9 routing_trip_9" vType="car" speedFactor="0.94" vaporized=""/>
    <tripinfo id="trip_25" depart="26.00" departLane="E7_18_0" departPos="5.10" departSpeed="0.00" departDelay="2.00" arrival="437.00" arrivalLane="E16_17_0" arrivalPos="2000.00" arrivalSpeed="17.50" duration="411.00" routeLength="7019.28" waitingTime="0.00" waitingCount="0" stopTime="0.00" timeLoss="25.86" rerouteNo="1" devices="tripinfo_trip_25 routing_trip_25" vType="car" speedFactor="0.83" vaporized=""/>
    <tripinfo id="trip_163" depart="151.00" departLane="E20_21_0" departPos="5.10" departSpeed="0.00" departDelay="0.00" arrival="437.00" arrivalLane="E20_21_0" arrivalPos="6000.00" arrivalSpeed="21.50" duration="286.00" routeLength="5994.90" waitingTime="0.00" waitingCount="0" stopTime="0.00" timeLoss="13.29" rerouteNo="1" devices="tripinfo_trip_163 routing_trip_163" vType="car" speedFactor="0.99" vaporized=""/>
    <tripinfo id="trip_132" depart="123.00" departLane="E17_16_0" departPos="5.10" departSpeed="0.00" departDelay="0.00" arrival="440.00" arrivalLane="E16_8_0" arrivalPos="5000.00" arrivalSpeed="21.11" duration="317.00" routeLength="7009.30" waitingTime="0.00" waitingCount="0" stopTime="0.00" timeLoss="21.44" rerouteNo="1" devices="tripinfo_trip_132 routing_trip_132" vType="car" speedFactor="1.07" vaporized=""/>
    <tripinfo id="trip_21" depart="20.00" departLane="E13_12_0" departPos="5.10" departSpeed="0.00" departDelay="0.00" arrival="441.00" arrivalLane="E12_11_0" arrivalPos="6000.00" arrivalSpeed="22.29" duration="421.00" routeLength="9003.93" waitingTime="0.00" waitingCount="0" stopTime="0.00" timeLoss="21.49" rerouteNo="1" devices="tripinfo_trip_21 routing_trip_21" vType="car" speedFactor="1.02" vaporized=""/>
    <tripinfo id="trip_109" depart="106.00" departLane="E18_16_0" departPos="5.10" departSpeed="0.00" departDelay="7.00" arrival="442.00" arrivalLane="E17_19_0" arrivalPos="2000.00" arrivalSpeed="23.14" duration="336.00" routeLength="7024.56" waitingTime="3.00" waitingCount="1" stopTime="0.00" timeLoss="37.94" rerouteNo="1" devices="tripinfo_trip_109 routing_trip_109" vType="car" speedFactor="1.06" vaporized=""/>
    <tripinfo id="trip_183" depart="170.00" departLane="E2_1_0" departPos="5.10" departSpeed="0.00" departDelay="0.00" arrival="445.00" arrivalLane="E2_1_0" arrivalPos="6000.00" arrivalSpeed="22.87" duration="275.00" routeLength="5994.90" waitingTime="0.00" waitingCount="0" stopTime="0.00" timeLoss="12.52" rerouteNo="1" devices="tripinfo_trip_183 routing_trip_183" vType="car" speedFactor="1.03" vaporized=""/>
    <tripinfo id="trip_70" depart="63.00" departLane="E8_6_0" departPos="5.10" departSpeed="0.00" departDelay="0.00" arrival="451.00" arrivalLane="E5_4_0" arrivalPos="2000.00" arrivalSpeed="18.68" duration="388.00" routeLength="8023.50" waitingTime="3.00" waitingCount="1" stopTime="0.00" timeLoss="33.36" rerouteNo="1" devices="tripinfo_trip_70 routing_trip_70" vType="car" speedFactor="1.02" vaporized=""/>
    <tripinfo id="trip_270" depart="262.00" departLane="E6_2_0" departPos="5.10" departSpeed="0.00" departDelay="0.00" arrival="452.00" arrivalLane="E6_2_0" arrivalPos="5000.00" arrivalSpeed="27.31" duration="190.00" routeLength="4994.90" waitingTime="0.00" waitingCount="0" stopTime="0.00" timeLoss="11.64" rerouteNo="1" devices="tripinfo_trip_270 routing_trip_270" vType="car" speedFactor="1.26" vaporized=""/>
    <tripinfo id="trip_126" depart="116.00" departLane="E5_4_0" departPos="5.10" departSpeed="0.00" departDelay="0.00" arrival="457.00" arrivalLane="E4_11_0" arrivalPos="6000.00" arrivalSpeed="24.86" duration="341.00" routeLength="8009.10" waitingTime="4.00" waitingCount="1" stopTime="0.00" timeLoss="27.16" rerouteNo="1" devices="tripinfo_trip_126 routing_trip_126" vType="car" speedFactor="1.15" vaporized=""/>
    <tripinfo id="trip_244" depart="231.00" departLane="E15_14_0" departPos="5.10" departSpeed="0.00" departDelay="0.00" arrival="470.00" arrivalLane="E15_14_0" arrivalPos="5000.00" arrivalSpeed="21.33" duration="239.00" routeLength="4994.90" waitingTime="0.00" waitingCount="0" stopTime="0.00" timeLoss="11.50" rerouteNo="1" devices="tripinfo_trip_244 routing_trip_244" vType="car" speedFactor="0.99" vaporized=""/>
    <tripinfo id="trip_81" depart="70.00" departLane="E19_17_0" departPos="5.10" departSpeed="0.00" departDelay="0.00" arrival="471.00" arrivalLane="E16_10_0" arrivalPos="4000.00" arrivalSpeed="22.30" duration="401.00" routeLength="8024.56" waitingTime="25.00" waitingCount="1" stopTime="0.00" timeLoss="50.50" rerouteNo="1" devices="tripinfo_trip_81 routing_trip_81" vType="car" speedFactor="1.03" vaporized=""/>
    <tripinfo id="trip_46" depart="43.00" departLane="E10_16_0" departPos="5.10" departSpeed="0.00" departDelay="0.00" arrival="472.00" arrivalLane="E16_8_0" arrivalPos="5000.00" arrivalSpeed="23.46" duration="429.00" routeLength="9009.10" waitingTime="20.00" waitingCount="2" stopTime="0.00" timeLoss="54.71" rerouteNo="1" devices="tripinfo_trip_46 routing_trip_46" vType="car" speedFactor="1.09" vaporized=""/>
    <tripinfo id="trip_15" depart="15.00" departLane="E17_16_0" departPos="5.10" departSpeed="0.00" departDelay="0.00" arrival="473.00" arrivalLane="E8_6_0" arrivalPos="2000.00" arrivalSpeed="21.77" duration="458.00" routeLength="9023.70" waitingTime="21.00" waitingCount="1" stopTime="0.00" timeLoss="47.31" rerouteNo="1" devices="tripinfo_trip_15 routing_trip_15" vType="car" speedFactor="0.99" vaporized=""/>
    <tripinfo id="trip_315" depart="313.00" departLane="E3_1_0" departPos="5.10" departSpeed="0.00" departDelay="0.00" arrival="473.00" arrivalLane="E3_1_0" arrivalPos="4000.00" arrivalSpeed="25.92" duration="160.00" routeLength="3994.90" waitingTime="0.00" waitingCount="0" stopTime="0.00" timeLoss="10.75" rerouteNo="1" devices="tripinfo_trip_315 routing_trip_315" vType="car" speedFactor="1.21" vaporized=""/>
    <tripinfo id="trip_260" depart="253.00" departLane="E10_16_0" departPos="5.10" departSpeed="0.00" departDelay="0.00" arrival="480.00" arrivalLane="E10_16_0" arrivalPos="4000.00" arrivalSpeed="17.95" duration="227.00" routeLength="3994.90" waitingTime="0.00" waitingCount="0" stopTime="0.00" timeLoss="11.90" rerouteNo="1" devices="tripinfo_trip_260 routing_trip_260" vType="car" speedFactor="0.84" vaporized=""/>
    <tripinfo id="trip_93" depart="83.00" departLane="E15_19_0" departPos="5.10" departSpeed="0.00" departDelay="0.00" arrival="486.00" arrivalLane="E17_16_0" arrivalPos="2000.00" arrivalSpeed="17.29" duration="403.00" routeLength="7024.55" waitingTime="0.00" waitingCount="0" stopTime="0.00" timeLoss="22.40" rerouteNo="1" devices="tripinfo_trip_93 routing_trip_93" vType="car" speedFactor="0.83" vaporized=""/>