<?xml version="1.0" encoding="UTF-8"?>

<!-- generated on 2025-12-23 15:05:26 by Eclipse SUMO GUI Version 1.24.0
<sumoConfiguration xmlns:xsi="http://www.w3.org/2001/XMLSchema-instance" xsi:noNamespaceSchemaLocation="http://sumo.dlr.de/xsd/sumoConfiguration.xsd">

    <input>
        <net-file value="result.net.xml"/>
        <route-files value="routes.rou.xml"/>
        <additional-files value="simulation.add.xml"/>
        <junction-taz value="true"/>
    </input>

    <output>
        <summary-output value="summary.xml"/>
        <tripinfo-output value="tripinfo.xml"/>
    </output>

    <time>
        <begin value="0"/>
        <end value="3600"/>
        <step-length value="1"/>
    </time>

    <processing>
        <time-to-teleport value="-1"/>
        <waiting-time-memory value="100"/>
    </processing>

    <routing>
        <device.rerouting.probability value="1.0"/>
        <device.rerouting.period value="60"/>
        <device.rerouting.adaptation-weight value="0.5"/>
        <device.rerouting.adaptation-interval value="1"/>
    </routing>

    <report>
        <no-warnings value="true"/>
    </report>

    <traci_server>
        <remote-port value="45907"/>
    </traci_server>

    <gui_only>
        <quit-on-end value="false"/>
        <start value="true"/>
    </gui_only>

</sumoConfiguration>
-->

<tripinfos xmlns:xsi="http://www.w3.org/2001/XMLSchema-instance" xsi:noNamespaceSchemaLocation="http://sumo.dlr.de/xsd/tripinfo_file.xsd">
    <tripinfo id="flow_route_2.0" depart="0.00" departLane="E1_3_0" departPos="5.10" departSpeed="0.00" departDelay="0.00" arrival="414.00" arrivalLane="E3_4_0" arrivalPos="4000.00" arrivalSpeed="20.10" duration="414.00" routeLength="8009.10" waitingTime="4.00" waitingCount="1" stopTime="0.00" timeLoss="28.00" rerouteNo="0" devices="tripinfo_flow_route_2.0 routing_flow_route_2.0" vType="default" speedFactor="0.94" vaporized=""/>
    <tripinfo id="flow_2_to_18.0" depart="0.00" departLane="E2_6_0" departPos="5.10" departSpeed="0.00" departDelay="0.00" arrival="533.00" arrivalLane="E7_18_0" arrivalPos="2000.00" arrivalSpeed="24.03" duration="533.00" routeLength="12026.08" waitingTime="0.00" waitingCount="0" stopTime="0.00" timeLoss="31.69" rerouteNo="1" devices="tripinfo_flow_2_to_18.0 routing_flow_2_to_18.0" vType="default" speedFactor="1.08" vaporized=""/>
    <tripinfo id="flow_2_to_18.1" depart="3.00" departLane="E2_6_0" departPos="5.10" departSpeed="0.00" departDelay="2.88" arrival="679.00" arrivalLane="E7_18_0" arrivalPos="2000.00" arrivalSpeed="20.89" duration="676.00" routeLength="12026.08" waitingTime="54.00" waitingCount="2" stopTime="0.00" timeLoss="98.61" rerouteNo="1" devices="tripinfo_flow_2_to_18.1 routing_flow_2_to_18.1" vType="default" speedFactor="0.94" vaporized=""/>
    <tripinfo id="flow_2_to_18.2" depart="6.00" departLane="E2_6_0" departPos="5.10" departSpeed="0.00" departDelay="5.76" arrival="682.00" arrivalLane="E7_18_0" arrivalPos="2000.00" arrivalSpeed="20.25" duration="676.00" routeLength="12026.08" waitingTime="49.00" waitingCount="2" stopTime="0.00" timeLoss="96.23" rerouteNo="1" devices="tripinfo_flow_2_to_18.2 routing_flow_2_to_18.2" vType="default" speedFactor="0.94" vaporized=""/>
    <tripinfo id="flow_2_to_18.3" depart="9.00" departLane="E2_6_0" departPos="5.10" departSpeed="0.00" departDelay="8.64" arrival="683.00" arrivalLane="E7_18_0" arrivalPos="2000.00" arrivalSpeed="21.94" duration="674.00" routeLength="12026.08" waitingTime="47.00" waitingCount="2" stopTime="0.00" timeLoss="205.12" rerouteNo="1" devices="tripinfo_flow_2_to_18.3 routing_flow_2_to_18.3" vType="default" speedFactor="1.16" vaporized=""/>
    <tripinfo id="flow_2_to_18.4" depart="12.00" departLane="E2_6_0" departPos="5.10" departSpeed="0.00" departDelay="11.52" arrival="685.00" arrivalLane="E7_18_0" arrivalPos="2000.00" arrivalSpeed="22.09" duration="673.00" routeLength="12026.08" waitingTime="46.00" waitingCount="2" stopTime="0.00" timeLoss="139.10" rerouteNo="1" devices="tripinfo_flow_2_to_18.4 routing_flow_2_to_18.4" vType="default" speedFactor="1.02" vaporized=""/>
    <tripinfo id="flow_2_to_18.5" depart="15.00" departLane="E2_6_0" departPos="5.10" departSpeed="0.00" departDelay="14.40" arrival="686.00" arrivalLane="E7_18_0" arrivalPos="2000.00" arrivalSpeed="22.04" duration="671.00" routeLength="12026.08" waitingTime="45.00" waitingCount="2" stopTime="0.00" timeLoss="132.68" rerouteNo="1" devices="tripinfo_flow_2_to_18.5 routing_flow_2_to_18.5" vType="default" speedFactor="1.01" vaporized=""/>
    <tripinfo id="flow_2_to_18.6" depart="18.00" departLane="E2_6_0" departPos="5.10" departSpeed="0.00" departDelay="17.28" arrival="692.00" arrivalLane="E7_18_0" arrivalPos="2000.00" arrivalSpeed="20.56" duration="674.00" routeLength="12026.08" waitingTime="43.00" waitingCount="2" stopTime="0.00" timeLoss="116.25" rerouteNo="1" devices="tripinfo_flow_2_to_18.6 routing_flow_2_to_18.6" vType="default" speedFactor="0.97" vaporized=""/>
    <tripinfo id="flow_2_to_18.7" depart="21.00" departLane="E2_6_0" departPos="5.10" departSpeed="0.00" departDelay="20.16" arrival="708.00" arrivalLane="E7_18_0" arrivalPos="2000.00" arrivalSpeed="19.58" duration="687.00" routeLength="12026.08" waitingTime="24.00" waitingCount="1" stopTime="0.00" timeLoss="76.00" rerouteNo="1" devices="tripinfo_flow_2_to_18.7 routing_flow_2_to_18.7" vType="default" speedFactor="0.89" vaporized=""/>
    <tripinfo id="flow_2_to_18.8" depart="24.00" departLane="E2_6_0" departPos="5.10" departSpeed="0.00" departDelay="23.04" arrival="732.00" arrivalLane="E7_18_0" arrivalPos="2000.00" arrivalSpeed="17.43" duration="708.00" routeLength="12026.08" waitingTime="3.00" waitingCount="1" stopTime="0.00" timeLoss="50.20" rerouteNo="1" devices="tripinfo_flow_2_to_18.8 routing_flow_2_to_18.8" vType="default" speedFactor="0.83" vaporized=""/>
    <tripinfo id="flow_2_to_18.9" depart="27.00" departLane="E2_6_0" departPos="5.10" departSpeed="0.00" departDelay="25.92" arrival="760.00" arrivalLane="E7_18_0" arrivalPos="2000.00" arrivalSpeed="18.72" duration="733.00" routeLength="12026.08" waitingTime="64.00" waitingCount="2" stopTime="0.00" timeLoss="130.67" rerouteNo="1" devices="tripinfo_flow_2_to_18.9 routing_flow_2_to_18.9" vType="default" speedFactor="0.90" vaporized=""/>
    <tripinfo id="flow_2_to_18.10" depart="30.00" departLane="E2_6_0" departPos="5.10" departSpeed="0.00" departDelay="28.80" arrival="762.00" arrivalLane="E7_18_0" arrivalPos="2000.00" arrivalSpeed="21.76" duration="732.00" routeLength="12026.08" waitingTime="61.00" waitingCount="2" stopTime="0.00" timeLoss="204.34" rerouteNo="1" devices="tripinfo_flow_2_to_18.10 routing_flow_2_to_18.10" vType="default" speedFactor="1.03" vaporized=""/>
    <tripinfo id="flow_2_to_18.11" depart="33.00" departLane="E2_6_0" departPos="5.10" departSpeed="0.00" departDelay="31.68" arrival="763.00" arrivalLane="E7_18_0" arrivalPos="2000.00" arrivalSpeed="20.66" duration="730.00" routeLength="12026.08" waitingTime="60.00" waitingCount="2" stopTime="0.00" timeLoss="163.10" rerouteNo="1" devices="tripinfo_flow_2_to_18.11 routing_flow_2_to_18.11" vType="default" speedFactor="0.96" vaporized=""/>
    <tripinfo id="flow_2_to_18.12" depart="36.00" departLane="E2_6_0" departPos="5.10" departSpeed="0.00" departDelay="34.56" arrival="765.00" arrivalLane="E7_18_0" arrivalPos="2000.00" arrivalSpeed="23.57" duration="729.00" routeLength="12026.08" waitingTime="58.00" waitingCount="2" stopTime="0.00" timeLoss="231.30" rerouteNo="1" devices="tripinfo_flow_2_to_18.12 routing_flow_2_to_18.12" vType="default" speedFactor="1.09" vaporized=""/>
    <tripinfo id="flow_2_to_18.13" depart="39.00" departLane="E2_6_0" departPos="5.10" departSpeed="0.00" departDelay="37.44" arrival="766.00" arrivalLane="E7_18_0" arrivalPos="2000.00" arrivalSpeed="22.36" duration="727.00" routeLength="12026.08" waitingTime="57.00" waitingCount="2" stopTime="0.00" timeLoss="203.88" rerouteNo="1" devices="tripinfo_flow_2_to_18.13 routing_flow_2_to_18.13" vType="default" speedFactor="1.04" vaporized=""/>
    <tripinfo id="flow_2_to_18.14" depart="42.00" departLane="E2_6_0" departPos="5.10" departSpeed="0.00" departDelay="40.32" arrival="767.00" arrivalLane="E7_18_0" arrivalPos="2000.00" arrivalSpeed="22.39" duration="725.00" routeLength="12026.08" waitingTime="56.00" waitingCount="2" stopTime="0.00" timeLoss="204.78" rerouteNo="1" devices="tripinfo_flow_2_to_18.14 routing_flow_2_to_18.14" vType="default" speedFactor="1.04" vaporized=""/>
    <tripinfo id="flow_2_to_18.15" depart="45.00" departLane="E2_6_0" departPos="5.10" departSpeed="0.00" departDelay="43.20" arrival="769.00" arrivalLane="E7_18_0" arrivalPos="2000.00" arrivalSpeed="23.35" duration="724.00" routeLength="12026.08" waitingTime="56.00" waitingCount="2" stopTime="0.00" timeLoss="224.16" rerouteNo="1" devices="tripinfo_flow_2_to_18.15 routing_flow_2_to_18.15" vType="default" speedFactor="1.09" vaporized=""/>
    <tripinfo id="flow_2_to_18.16" depart="48.00" departLane="E2_6_0" departPos="5.10" departSpeed="0.00" departDelay="46.08" arrival="774.00" arrivalLane="E7_18_0" arrivalPos="2000.00" arrivalSpeed="21.50" duration="726.00" routeLength="12026.08" waitingTime="55.00" waitingCount="2" stopTime="0.00" timeLoss="181.37" rerouteNo="1" devices="tripinfo_flow_2_to_18.16 routing_flow_2_to_18.16" vType="default" speedFactor="1.00" vaporized=""/>
    <tripinfo id="flow_2_to_18.17" depart="51.00" departLane="E2_6_0" departPos="5.10" departSpeed="0.00" departDelay="48.96" arrival="776.00" arrivalLane="E7_18_0" arrivalPos="2000.00" arrivalSpeed="24.27" duration="725.00" routeLength="12026.08" waitingTime="52.00" waitingCount="2" stopTime="0.00" timeLoss="239.02" rerouteNo="1" devices="tripinfo_flow_2_to_18.17 routing_flow_2_to_18.17" vType="default" speedFactor="1.12" vaporized=""/>
    <tripinfo id="flow_2_to_18.18" depart="54.00" departLane="E2_6_0" departPos="5.10" departSpeed="0.00" departDelay="51.84" arrival="778.00" arrivalLane="E7_18_0" arrivalPos="2000.00" arrivalSpeed="22.06" duration="724.00" routeLength="12026.08" waitingTime="49.00" waitingCount="2" stopTime="0.00" timeLoss="188.67" rerouteNo="1" devices="tripinfo_flow_2_to_18.18 routing_flow_2_to_18.18" vType="default" speedFactor="1.02" vaporized=""/>
    <tripinfo id="flow_2_to_18.19" depart="57.00" departLane="E2_6_0" departPos="5.10" departSpeed="0.00" departDelay="54.72" arrival="784.00" arrivalLane="E7_18_0" arrivalPos="2000.00" arrivalSpeed="21.04" duration="727.00" routeLength="12026.08" waitingTime="49.00" waitingCount="2" stopTime="0.00" timeLoss="177.38" rerouteNo="1" devices="tripinfo_flow_2_to_18.19 routing_flow_2_to_18.19" vType="default" speedFactor="0.99" vaporized=""/>
    <tripinfo id="flow_2_to_18.20" depart="60.00" departLane="E2_6_0" departPos="5.10" departSpeed="0.00" departDelay="57.60" arrival="793.00" arrivalLane="E7_18_0" arrivalPos="2000.00" arrivalSpeed="20.80" duration="733.00" routeLength="12026.08" waitingTime="50.00" waitingCount="2" stopTime="0.00" timeLoss="153.08" rerouteNo="1" devices="tripinfo_flow_2_to_18.20 routing_flow_2_to_18.20" vType="default" speedFactor="0.94" vaporized=""/>
    <tripinfo id="flow_2_to_18.21" depart="63.00" departLane="E2_6_0" departPos="5.10" departSpeed="0.00" departDelay="60.48" arrival="835.00" arrivalLane="E7_18_0" arrivalPos="2000.00" arrivalSpeed="18.82" duration="772.00" routeLength="12026.08" waitingTime="86.00" waitingCount="3" stopTime="0.00" timeLoss="156.36" rerouteNo="1" devices="tripinfo_flow_2_to_18.21 routing_flow_2_to_18.21" vType="default" speedFactor="0.88" vaporized=""/>
    <tripinfo id="flow_2_to_18.22" depart="66.00" departLane="E2_6_0" departPos="5.10" departSpeed="0.00" departDelay="63.36" arrival="837.00" arrivalLane="E7_18_0" arrivalPos="2000.00" arrivalSpeed="18.95" duration="771.00" routeLength="12026.08" waitingTime="85.00" waitingCount="3" stopTime="0.00" timeLoss="171.77" rerouteNo="1" devices="tripinfo_flow_2_to_18.22 routing_flow_2_to_18.22" vType="default" speedFactor="0.91" vaporized=""/>
    <tripinfo id="flow_2_to_18.23" depart="69.00" departLane="E2_6_0" departPos="5.10" departSpeed="0.00" departDelay="66.24" arrival="839.00" arrivalLane="E7_18_0" arrivalPos="2000.00" arrivalSpeed="19.02" duration="770.00" routeLength="12026.08" waitingTime="82.00" waitingCount="3" stopTime="0.00" timeLoss="175.01" rerouteNo="1" devices="tripinfo_flow_2_to_18.23 routing_flow_2_to_18.23" vType="default" speedFactor="0.91" vaporized=""/>
    <tripinfo id="flow_2_to_18.24" depart="72.00" departLane="E2_6_0" departPos="5.10" departSpeed="0.00" departDelay="69.12" arrival="840.00" arrivalLane="E7_18_0" arrivalPos="2000.00" arrivalSpeed="21.50" duration="768.00" routeLength="12026.08" waitingTime="83.00" waitingCount="3" stopTime="0.00" timeLoss="245.59" rerouteNo="1" devices="tripinfo_flow_2_to_18.24 routing_flow_2_to_18.24" vType="default" speedFactor="1.04" vaporized=""/>
    <tripinfo id="flow_2_to_18.25" depart="75.00" departLane="E2_6_0" departPos="5.10" departSpeed="0.00" departDelay="72.00" arrival="842.00" arrivalLane="E7_18_0" arrivalPos="2000.00" arrivalSpeed="21.50" duration="767.00" routeLength="12026.08" waitingTime="82.00" waitingCount="4" stopTime="0.00" timeLoss="235.64" rerouteNo="1" devices="tripinfo_flow_2_to_18.25 routing_flow_2_to_18.25" vType="default" speedFactor="1.02" vaporized=""/>
    <tripinfo id="flow_2_to_18.26" depart="78.00" departLane="E2_6_0" departPos="5.10" departSpeed="0.00" departDelay="74.88" arrival="843.00" arrivalLane="E7_18_0" arrivalPos="2000.00" arrivalSpeed="23.56" duration="765.00" routeLength="12026.08" waitingTime="98.00" waitingCount="4" stopTime="0.00" timeLoss="292.39" rerouteNo="1" devices="tripinfo_flow_2_to_18.26 routing_flow_2_to_18.26" vType="default" speedFactor="1.15" vaporized=""/>
    <tripinfo id="flow_2_to_18.27" depart="81.00" departLane="E2_6_0" departPos="5.10" departSpeed="0.00" departDelay="77.76" arrival="846.00" arrivalLane="E7_18_0" arrivalPos="2000.00" arrivalSpeed="21.07" duration="765.00" routeLength="12026.08" waitingTime="92.00" waitingCount="3" stopTime="0.00" timeLoss="208.46" rerouteNo="1" devices="tripinfo_flow_2_to_18.27 routing_flow_2_to_18.27" vType="default" speedFactor="0.98" vaporized=""/>
    <tripinfo id="flow_2_to_18.28" depart="84.00" departLane="E2_6_0" departPos="5.10" departSpeed="0.00" departDelay="80.64" arrival="847.00" arrivalLane="E7_18_0" arrivalPos="2000.00" arrivalSpeed="21.92" duration="763.00" routeLength="12026.08" waitingTime="93.00" waitingCount="4" stopTime="0.00" timeLoss="220.65" rerouteNo="1" devices="tripinfo_flow_2_to_18.28 routing_flow_2_to_18.28" vType="default" speedFactor="1.00" vaporized=""/>
    <tripinfo id="flow_2_to_18.29" depart="87.00" departLane="E2_6_0" departPos="5.10" departSpeed="0.00" departDelay="83.52" arrival="849.00" arrivalLane="E7_18_0" arrivalPos="2000.00" arrivalSpeed="23.04" duration="762.00" routeLength="12026.08" waitingTime="91.00" waitingCount="4" stopTime="0.00" timeLoss="240.27" rerouteNo="1" devices="tripinfo_flow_2_to_18.29 routing_flow_2_to_18.29" vType="default" speedFactor="1.04" vaporized=""/>
    <tripinfo id="flow_2_to_18.30" depart="90.00" departLane="E2_6_0" departPos="5.10" departSpeed="0.00" departDelay="86.40" arrival="853.00" arrivalLane="E7_18_0" arrivalPos="2000.00" arrivalSpeed="21.66" duration="763.00" routeLength="12026.08" waitingTime="87.00" waitingCount="3" stopTime="0.00" timeLoss="223.64" rerouteNo="1" devices="tripinfo_flow_2_to_18.30 routing_flow_2_to_18.30" vType="default" speedFactor="1.01" vaporized=""/>
    <tripinfo id="flow_2_to_18.31" depart="93.00" departLane="E2_6_0" departPos="5.10" departSpeed="0.00" departDelay="89.28" arrival="855.00" arrivalLane="E7_18_0" arrivalPos="2000.00" arrivalSpeed="21.61" duration="762.00" routeLength="12026.08" waitingTime="87.00" waitingCount="4" stopTime="0.00" timeLoss="230.72" rerouteNo="1" devices="tripinfo_flow_2_to_18.31 routing_flow_2_to_18.31" vType="default" speedFactor="1.02" vaporized=""/>
    <tripinfo id="flow_2_to_18.32" depart="96.00" departLane="E2_6_0" departPos="5.10" departSpeed="0.00" departDelay="92.16" arrival="858.00" arrivalLane="E7_18_0" arrivalPos="2000.00" arrivalSpeed="22.52" duration="762.00" routeLength="12026.08" waitingTime="87.00" waitingCount="4" stopTime="0.00" timeLoss="228.52" rerouteNo="1" devices="tripinfo_flow_2_to_18.32 routing_flow_2_to_18.32" vType="default" speedFactor="1.02" vaporized=""/>
    <tripinfo id="flow_2_to_18.33" depart="99.00" departLane="E2_6_0" departPos="5.10" departSpeed="0.00" departDelay="95.04" arrival="875.00" arrivalLane="E7_18_0" arrivalPos="2000.00" arrivalSpeed="19.76" duration="776.00" routeLength="12026.08" waitingTime="80.00" waitingCount="3" stopTime="0.00" timeLoss="167.18" rerouteNo="1" devices="tripinfo_flow_2_to_18.33 routing_flow_2_to_18.33" vType="default" speedFactor="0.89" vaporized=""/>
    <tripinfo id="flow_2_to_18.34" depart="102.00" departLane="E2_6_0" departPos="5.10" departSpeed="0.00" departDelay="97.92" arrival="877.00" arrivalLane="E7_18_0" arrivalPos="2000.00" arrivalSpeed="22.26" duration="775.00" routeLength="12026.08" waitingTime="113.00" waitingCount="4" stopTime="0.00" timeLoss="239.60" rerouteNo="1" devices="tripinfo_flow_2_to_18.34 routing_flow_2_to_18.34" vType="default" speedFactor="1.01" vaporized=""/>
    <tripinfo id="flow_2_to_18.35" depart="105.00" departLane="E2_6_0" departPos="5.10" departSpeed="0.00" departDelay="100.80" arrival="878.00" arrivalLane="E7_18_0" arrivalPos="2000.00" arrivalSpeed="22.08" duration="773.00" routeLength="12026.08" waitingTime="111.00" waitingCount="4" stopTime="0.00" timeLoss="248.59" rerouteNo="1" devices="tripinfo_flow_2_to_18.35 routing_flow_2_to_18.35" vType="default" speedFactor="1.03" vaporized=""/>
    <tripinfo id="flow_2_to_18.36" depart="108.00" departLane="E2_6_0" departPos="5.10" departSpeed="0.00" departDelay="103.68" arrival="880.00" arrivalLane="E7_18_0" arrivalPos="2000.00" arrivalSpeed="23.17" duration="772.00" routeLength="12026.08" waitingTime="106.00" waitingCount="4" stopTime="0.00" timeLoss="262.22" rerouteNo="1" devices="tripinfo_flow_2_to_18.36 routing_flow_2_to_18.36" vType="default" speedFactor="1.06" vaporized=""/>
    <tripinfo id="flow_2_to_18.37" depart="111.00" departLane="E2_6_0" departPos="5.10" departSpeed="0.00" departDelay="106.56" arrival="891.00" arrivalLane="E7_18_0" arrivalPos="2000.00" arrivalSpeed="20.89" duration="780.00" routeLength="12026.08" waitingTime="105.00" waitingCount="4" stopTime="0.00" timeLoss="213.51" rerouteNo="1" devices="tripinfo_flow_2_to_18.37 routing_flow_2_to_18.37" vType="default" speedFactor="0.96" vaporized=""/>
    <tripinfo id="flow_2_to_18.38" depart="114.00" departLane="E2_6_0" departPos="5.10" departSpeed="0.00" departDelay="109.44" arrival="903.00" arrivalLane="E7_18_0" arrivalPos="2000.00" arrivalSpeed="20.17" duration="789.00" routeLength="12026.08" waitingTime="104.00" waitingCount="4" stopTime="0.00" timeLoss="203.96" rerouteNo="1" devices="tripinfo_flow_2_to_18.38 routing_flow_2_to_18.38" vType="default" speedFactor="0.93" vaporized=""/>
    <tripinfo id="flow_2_to_18.39" depart="117.00" departLane="E2_6_0" departPos="5.10" departSpeed="0.00" departDelay="112.32" arrival="923.00" arrivalLane="E7_18_0" arrivalPos="2000.00" arrivalSpeed="18.12" duration="806.00" routeLength="12026.08" waitingTime="89.00" waitingCount="4" stopTime="0.00" timeLoss="178.78" rerouteNo="1" devices="tripinfo_flow_2_to_18.39 routing_flow_2_to_18.39" vType="default" speedFactor="0.87" vaporized=""/>
    <tripinfo id="flow_2_to_18.40" depart="120.00" departLane="E2_6_0" departPos="5.10" departSpeed="0.00" departDelay="115.20" arrival="925.00" arrivalLane="E7_18_0" arrivalPos="2000.00" arrivalSpeed="21.51" duration="805.00" routeLength="12026.08" waitingTime="86.00" waitingCount="3" stopTime="0.00" timeLoss="310.65" rerouteNo="1" devices="tripinfo_flow_2_to_18.40 routing_flow_2_to_18.40" vType="default" speedFactor="1.10" vaporized=""/>
    <tripinfo id="flow_2_to_18.41" depart="123.00" departLane="E2_6_0" departPos="5.10" departSpeed="0.00" departDelay="118.08" arrival="926.00" arrivalLane="E7_18_0" arrivalPos="2000.00" arrivalSpeed="20.85" duration="803.00" routeLength="12026.08" waitingTime="84.00" waitingCount="3" stopTime="0.00" timeLoss="264.36" rerouteNo="1" devices="tripinfo_flow_2_to_18.41 routing_flow_2_to_18.41" vType="default" speedFactor="1.01" vaporized=""/>
    <tripinfo id="flow_2_to_18.42" depart="126.00" departLane="E2_6_0" departPos="5.10" departSpeed="0.00" departDelay="120.96" arrival="927.00" arrivalLane="E7_18_0" arrivalPos="2000.00" arrivalSpeed="21.65" duration="801.00" routeLength="12026.08" waitingTime="101.00" waitingCount="4" stopTime="0.00" timeLoss="315.39" rerouteNo="1" devices="tripinfo_flow_2_to_18.42 routing_flow_2_to_18.42" vType="default" speedFactor="1.12" vaporized=""/>
    <tripinfo id="flow_2_to_18.43" depart="129.00" departLane="E2_6_0" departPos="5.10" departSpeed="0.00" departDelay="123.84" arrival="929.00" arrivalLane="E7_18_0" arrivalPos="2000.00" arrivalSpeed="21.18" duration="800.00" routeLength="12026.08" waitingTime="90.00" waitingCount="3" stopTime="0.00" timeLoss="261.27" rerouteNo="1" devices="tripinfo_flow_2_to_18.43 routing_flow_2_to_18.43" vType="default" speedFactor="1.01" vaporized=""/>
    <tripinfo id="flow_2_to_18.44" depart="132.00" departLane="E2_6_0" departPos="5.10" departSpeed="0.00" departDelay="126.72" arrival="931.00" arrivalLane="E7_18_0" arrivalPos="2000.00" arrivalSpeed="21.99" duration="799.00" routeLength="12026.08" waitingTime="88.00" waitingCount="3" stopTime="0.00" timeLoss="272.01" rerouteNo="1" devices="tripinfo_flow_2_to_18.44 routing_flow_2_to_18.44" vType="default" speedFactor="1.03" vaporized=""/>
    <tripinfo id="flow_2_to_18.45" depart="135.00" departLane="E2_6_0" departPos="5.10" departSpeed="0.00" departDelay="129.60" arrival="932.00" arrivalLane="E7_18_0" arrivalPos="2000.00" arrivalSpeed="23.11" duration="797.00" routeLength="12026.08" waitingTime="88.00" waitingCount="3" stopTime="0.00" timeLoss="289.18" rerouteNo="1" devices="tripinfo_flow_2_to_18.45 routing_flow_2_to_18.45" vType="default" speedFactor="1.07" vaporized=""/>
    <tripinfo id="flow_2_to_18.46" depart="138.00" departLane="E2_6_0" departPos="5.10" departSpeed="0.00" departDelay="132.48" arrival="954.00" arrivalLane="E7_18_0" arrivalPos="2000.00" arrivalSpeed="20.76" duration="816.00" routeLength="12026.08" waitingTime="122.00" waitingCount="4" stopTime="0.00" timeLoss="250.08" rerouteNo="1" devices="tripinfo_flow_2_to_18.46 routing_flow_2_to_18.46" vType="default" speedFactor="0.96" vaporized=""/>
    <tripinfo id="flow_2_to_18.47" depart="141.00" departLane="E2_6_0" departPos="5.10" departSpeed="0.00" departDelay="135.36" arrival="955.00" arrivalLane="E7_18_0" arrivalPos="2000.00" arrivalSpeed="22.29" duration="814.00" routeLength="12026.08" waitingTime="121.00" waitingCount="5" stopTime="0.00" timeLoss="290.50" rerouteNo="1" devices="tripinfo_flow_2_to_18.47 routing_flow_2_to_18.47" vType="default" speedFactor="1.04" vaporized=""/>
    <tripinfo id="flow_2_to_18.48" depart="144.00" departLane="E2_6_0" departPos="5.10" departSpeed="0.00" departDelay="138.24" arrival="957.00" arrivalLane="E7_18_0" arrivalPos="2000.00" arrivalSpeed="24.96" duration="813.00" routeLength="12026.08" waitingTime="118.00" waitingCount="5" stopTime="0.00" timeLoss="369.41" rerouteNo="1" devices="tripinfo_flow_2_to_18.48 routing_flow_2_to_18.48" vType="default" speedFactor="1.23" vaporized=""/>
    <tripinfo id="flow_2_to_18.49" depart="147.00" departLane="E2_6_0" departPos="5.10" departSpeed="0.00" departDelay="141.12" arrival="959.00" arrivalLane="E7_18_0" arrivalPos="2000.00" arrivalSpeed="22.20" duration="812.00" routeLength="12026.08" waitingTime="118.00" waitingCount="4" stopTime="0.00" timeLoss="275.61" rerouteNo="1" devices="tripinfo_flow_2_to_18.49 routing_flow_2_to_18.49" vType="default" speedFactor="1.01" vaporized=""/>
    <tripinfo id="flow_2_to_18.50" depart="150.00" departLane="E2_6_0" departPos="5.10" departSpeed="0.00" departDelay="144.00" arrival="961.00" arrivalLane="E7_18_0" arrivalPos="2000.00" arrivalSpeed="23.73" duration="811.00" routeLength="12026.08" waitingTime="115.00" waitingCount="5" stopTime="0.00" timeLoss="325.99" rerouteNo="1" devices="tripinfo_flow_2_to_18.50 routing_flow_2_to_18.50" vType="default" speedFactor="1.12" vaporized=""/>
    <tripinfo id="flow_2_to_18.51" depart="153.00" departLane="E2_6_0" departPos="5.10" departSpeed="0.00" departDelay="146.88" arrival="965.00" arrivalLane="E7_18_0" arrivalPos="2000.00" arrivalSpeed="22.07" duration="812.00" routeLength="12026.08" waitingTime="113.00" waitingCount="5" stopTime="0.00" timeLoss="271.64" rerouteNo="1" devices="tripinfo_flow_2_to_18.51 routing_flow_2_to_18.51" vType="default" speedFactor="1.00" vaporized=""/>
    <tripinfo id="flow_2_to_18.52" depart="156.00" departLane="E2_6_0" departPos="5.10" departSpeed="0.00" departDelay="149.76" arrival="966.00" arrivalLane="E7_18_0" arrivalPos="2000.00" arrivalSpeed="23.18" duration="810.00" routeLength="12026.08" waitingTime="112.00" waitingCount="4" stopTime="0.00" timeLoss="303.86" rerouteNo="1" devices="tripinfo_flow_2_to_18.52 routing_flow_2_to_18.52" vType="default" speedFactor="1.07" vaporized=""/>
    <tripinfo id="flow_2_to_18.53" depart="159.00" departLane="E2_6_0" departPos="5.10" departSpeed="0.00" departDelay="152.64" arrival="981.00" arrivalLane="E7_18_0" arrivalPos="2000.00" arrivalSpeed="20.47" duration="822.00" routeLength="12026.08" waitingTime="112.00" waitingCount="5" stopTime="0.00" timeLoss="235.74" rerouteNo="1" devices="tripinfo_flow_2_to_18.53 routing_flow_2_to_18.53" vType="default" speedFactor="0.93" vaporized=""/>
    <tripinfo id="flow_2_to_18.54" depart="162.00" departLane="E2_6_0" departPos="5.10" departSpeed="0.00" departDelay="155.52" arrival="983.00" arrivalLane="E7_18_0" arrivalPos="2000.00" arrivalSpeed="22.96" duration="821.00" routeLength="12026.08" waitingTime="113.00" waitingCount="4" stopTime="0.00" timeLoss="310.42" rerouteNo="1" devices="tripinfo_flow_2_to_18.54 routing_flow_2_to_18.54" vType="default" speedFactor="1.06" vaporized=""/>
    <tripinfo id="flow_2_to_18.55" depart="165.00" departLane="E2_6_0" departPos="5.10" departSpeed="0.00" departDelay="158.40" arrival="984.00" arrivalLane="E7_18_0" arrivalPos="2000.00" arrivalSpeed="23.42" duration="819.00" routeLength="12026.08" waitingTime="112.00" waitingCount="4" stopTime="0.00" timeLoss="336.30" rerouteNo="1" devices="tripinfo_flow_2_to_18.55 routing_flow_2_to_18.55" vType="default" speedFactor="1.12" vaporized=""/>
    <tripinfo id="flow_2_to_18.56" depart="168.00" departLane="E2_6_0" departPos="5.10" departSpeed="0.00" departDelay="161.28" arrival="986.00" arrivalLane="E7_18_0" arrivalPos="2000.00" arrivalSpeed="24.69" duration="818.00" routeLength="12026.08" waitingTime="109.00" waitingCount="4" stopTime="0.00" timeLoss="357.46" rerouteNo="1" devices="tripinfo_flow_2_to_18.56 routing_flow_2_to_18.56" vType="default" speedFactor="1.18" vaporized=""/>
    <tripinfo id="flow_2_to_18.57" depart="171.00" departLane="E2_6_0" departPos="5.10" departSpeed="0.00" departDelay="164.16" arrival="987.00" arrivalLane="E7_18_0" arrivalPos="2000.00" arrivalSpeed="23.14" duration="816.00" routeLength="12026.08" waitingTime="108.00" waitingCount="4" stopTime="0.00" timeLoss="312.88" rerouteNo="1" devices="tripinfo_flow_2_to_18.57 routing_flow_2_to_18.57" vType="default" speedFactor="1.08" vaporized=""/>
    <tripinfo id="flow_2_to_18.58" depart="174.00" departLane="E2_6_0" departPos="5.10" departSpeed="0.00" departDelay="167.04" arrival="1036.00" arrivalLane="E7_18_0" arrivalPos="2000.00" arrivalSpeed="19.26" duration="862.00" routeLength="12026.08" waitingTime="151.00" waitingCount="5" stopTime="0.00" timeLoss="265.77" rerouteNo="1" devices="tripinfo_flow_2_to_18.58 routing_flow_2_to_18.58" vType="default" speedFactor="0.91" vaporized=""/>
    <tripinfo id="flow_2_to_18.59" depart="177.00" departLane="E2_6_0" departPos="5.10" departSpeed="0.00" departDelay="169.92" arrival="1038.00" arrivalLane="E7_18_0" arrivalPos="2000.00" arrivalSpeed="23.79" duration="861.00" routeLength="12026.08" waitingTime="149.00" waitingCount="5" stopTime="0.00" timeLoss="384.75" rerouteNo="1" devices="tripinfo_flow_2_to_18.59 routing_flow_2_to_18.59" vType="default" speedFactor="1.14" vaporized=""/>
    <tripinfo id="flow_2_to_18.60" depart="180.00" departLane="E2_6_0" departPos="5.10" departSpeed="0.00" departDelay="172.80" arrival="1039.00" arrivalLane="E7_18_0" arrivalPos="2000.00" arrivalSpeed="20.98" duration="859.00" routeLength="12026.08" waitingTime="147.00" waitingCount="6" stopTime="0.00" timeLoss="291.14" rerouteNo="1" devices="tripinfo_flow_2_to_18.60 routing_flow_2_to_18.60" vType="default" speedFactor="0.96" vaporized=""/>
    <tripinfo id="flow_2_to_18.61" depart="183.00" departLane="E2_6_0" departPos="5.10" departSpeed="0.00" departDelay="175.68" arrival="1046.00" arrivalLane="E7_18_0" arrivalPos="2000.00" arrivalSpeed="19.36" duration="863.00" routeLength="12026.08" waitingTime="145.00" waitingCount="5" stopTime="0.00" timeLoss="273.38" rerouteNo="1" devices="tripinfo_flow_2_to_18.61 routing_flow_2_to_18.61" vType="default" speedFactor="0.92" vaporized=""/>
    <tripinfo id="flow_2_to_18.62" depart="186.00" departLane="E2_6_0" departPos="5.10" departSpeed="0.00" departDelay="178.56" arrival="1048.00" arrivalLane="E7_18_0" arrivalPos="2000.00" arrivalSpeed="24.03" duration="862.00" routeLength="12026.08" waitingTime="139.00" waitingCount="5" stopTime="0.00" timeLoss="363.74" rerouteNo="1" devices="tripinfo_flow_2_to_18.62 routing_flow_2_to_18.62" vType="default" speedFactor="1.09" vaporized=""/>